ITEM: TIMESTEP
100000
ITEM: NUMBER OF ATOMS
30080
ITEM: BOX BOUNDS pp pp pp
4.1059070345 76.5140929655
4.1059070345 76.5140929655
4.1059070345 76.5140929655
ITEM: ATOMS id type x y z
4981 1 5.39585 9.30424 4.33849
24161 2 5.84462 7.80718 4.60394
5508 1 5.39165 7.4386 6.13451
19714 2 5.74212 5.98008 6.7497
2617 1 5.5107 6.13443 8.40895
5099 1 7.21437 5.48709 6.3026
26041 3 5.37044 6.05075 9.79177
13700 1 8.84664 9.29134 9.86454
20272 2 8.63468 4.88376 5.62277
6344 1 4.87874 4.81737 6.15854
6590 1 9.85245 8.91659 4.68883
9553 1 9.58891 4.44839 6.81511
16831 1 7.45541 7.81899 4.54008
11105 1 9.42517 5.65012 4.44948
5378 1 9.77359 17.4537 15.9486
11413 1 6.94333 10.4014 9.12998
13819 1 15.7958 4.671 6.98187
23436 2 12.7955 8.89569 7.51677
16091 1 12.8753 8.34659 6.03091
13363 1 12.2661 7.73271 8.54177
23106 2 14.3005 8.01081 5.34253
14183 1 14.3656 8.97831 7.91482
28974 4 10.9727 7.13624 5.28235
21965 2 12.6424 6.20975 8.88173
5438 1 15.0491 6.74996 6.06364
24864 3 14.9318 5.80893 7.00395
4069 1 13.8603 5.84 7.88288
17799 1 15.2024 9.27738 4.99687
13479 1 11.4659 5.16112 8.54354
20861 2 15.6098 9.37418 8.82823
6020 1 15.7592 4.64811 9.86315
15551 1 15.9321 8.21027 9.87059
28103 4 11.79 10.0786 4.3117
11285 1 21.4879 4.76239 8.11595
18514 2 17.3462 4.87653 9.73328
29848 4 19.6886 6.15963 8.48487
14751 1 19.3755 8.56345 7.79935
22463 2 16.7303 9.25227 4.57362
10657 1 16.9914 9.63681 7.98614
20569 2 18.2089 9.30846 7.0564
8137 1 17.6072 8.60069 5.73756
24684 3 20.5278 8.88082 8.57569
15408 1 17.5146 6.47532 9.56163
6118 1 21.2387 9.66374 5.22462
4368 1 20.5708 7.96962 9.7639
5509 1 21.4258 7.17439 5.5474
19490 2 21.6741 5.91675 4.48075
14036 1 21.7228 8.80863 7.64748
9972 1 21.2777 4.58921 5.35523
19947 2 22.1092 4.5351 9.56118
10714 1 17.9643 4.35521 8.34149
24157 2 22.0655 8.52881 6.09735
6249 1 4.11569 14.0524 4.51867
16473 1 5.76658 12.0185 4.45702
898 1 7.70592 10.343 4.76636
1187 1 5.86731 10.4575 6.62876
26253 3 8.04093 10.4063 9.93672
19736 2 6.14098 10.6049 5.03061
29306 4 9.56792 10.6884 6.26646
7392 1 4.31701 10.8586 8.86472
21375 2 5.75135 10.96 8.13591
15104 1 6.27613 12.4971 8.1716
9364 1 8.02236 13.1315 6.26666
19322 2 7.5113 13.4625 7.75899
2350 1 6.80967 14.5232 4.47711
3712 1 6.81014 14.9324 7.9072
23643 2 5.63787 15.8944 8.3189
18804 2 8.27563 14.0286 4.9547
5601 1 8.76782 13.3386 8.72661
15547 1 9.14387 15.3123 5.54426
111 1 5.03299 15.2874 9.75633
22146 2 9.22591 13.0654 10.2471
1694 1 4.55073 15.8476 7.19245
2117 1 8.62544 11.5606 10.4962
4309 1 14.4195 4.29 11.9932
29487 4 11.4646 10.1763 9.69032
4086 1 12.1049 10.306 7.61945
12664 1 15.2768 10.8895 9.37356
1708 1 10.9365 12.0574 5.15389
26828 4 12.374 12.4774 6.75309
8313 1 12.4666 14.6531 5.78553
9113 1 13.1172 15.1424 8.31061
20800 2 12.5961 15.8207 6.94297
25806 3 13.3389 15.7073 9.55304
9734 1 15.5392 14.325 5.59055
10116 1 15.9178 13.8107 8.16219
24176 2 15.9988 14.4805 9.63299
3367 1 14.7856 15.4433 9.95067
24779 3 15.3192 13.9136 4.33252
3443 1 21.9154 15.2726 6.37306
9718 1 20.4366 10.2009 9.20829
10653 1 18.7228 10.7756 6.37763
24893 3 17.9662 11.634 5.44316
28867 4 17.2755 11.8279 8.5759
4404 1 16.9574 12.3552 6.29403
14861 1 18.7239 12.4983 4.73913
1236 1 20.2588 12.7422 8.70508
23984 2 16.5701 13.8604 6.67698
6887 1 17.7271 14.9248 6.86407
27909 4 20.2328 14.8114 7.83667
16047 1 21.3379 12.7993 5.31481
26706 4 21.3487 11.3659 7.16747
22158 2 20.0229 11.6922 9.8916
11065 1 17.4046 15.0743 10.084
27 1 20.0381 15.9531 10.0649
22798 2 9.72521 16.6993 6.13787
9901 1 8.77318 17.4269 7.17464
14409 1 6.39272 17.2791 8.33363
5705 1 6.70274 18.1301 5.72875
20693 2 7.2296 18.131 7.26669
24295 2 5.8572 19.3371 5.04369
9440 1 4.74433 19.5918 6.24579
4231 1 7.48956 19.6383 7.73819
28479 4 5.65676 20.6346 8.3473
5054 1 6.84494 20.6355 4.82005
23421 2 8.24809 21.3786 4.7803
14019 1 9.39624 20.2263 5.01236
27192 4 9.65773 20.2694 7.60126
507 1 10.1286 17.6867 4.9226
27813 4 5.58422 16.4876 4.50494
16800 1 10.2199 20.3666 9.83303
25110 3 14.5157 21.4897 4.58756
12873 1 11.1226 16.4918 7.03614
5567 1 13.633 17.0437 6.48124
28652 4 11.0597 17.6739 9.22361
4104 1 15.1672 17.9564 4.86158
24486 3 14.4496 18.0634 6.07574
16099 1 14.6012 19.257 6.71877
20585 2 14.1841 21.2695 9.34179
1683 1 14.9252 21.6594 5.87347
11301 1 15.3807 21.1189 8.34952
23961 2 15.5276 20.4856 6.84648
17257 1 13.2138 17.1686 9.64419
13021 1 12.8718 21.7559 8.53202
6677 1 15.6806 18.3273 9.87648
29021 4 6.21464 4.58698 4.17827
19953 2 17.847 16.5153 6.78298
5861 1 17.484 16.9866 5.27047
5256 1 19.3263 16.9504 7.24547
10385 1 16.9693 17.2885 7.90591
4923 1 21.5062 17.902 6.24719
21682 2 17.136 18.1107 9.38555
23375 2 20.4043 18.1752 7.38552
4744 1 19.7161 19.5686 6.94418
2685 1 17.0587 20.2081 6.62411
18829 2 18.3695 20.2582 7.55602
4182 1 18.4083 21.7154 8.19075
8066 1 18.0123 19.416 8.90453
3770 1 21.0195 18.1456 8.85729
9879 1 21.5209 21.6348 9.73159
30016 4 21.657 20.107 5.20842
20957 2 22.0681 16.5962 5.44564
18323 2 21.2541 17.0422 10.0402
2030 1 22.1234 18.9998 13.5234
17129 1 4.78016 4.07806 14.3147
213 1 5.3117 4.8223 10.3699
21277 2 7.97002 5.88459 14.5545
9882 1 4.81135 6.22833 13.1418
19032 2 6.45866 8.47292 15.2908
24141 2 4.49825 7.38494 12.048
23471 2 6.27403 9.88482 12.8188
4633 1 6.68088 9.76335 14.3667
15469 1 5.15298 8.75084 12.6895
14067 1 7.54227 9.36337 11.9755
373 1 7.27307 7.27869 14.6208
15183 1 5.14368 7.12801 10.5894
21713 2 8.89443 8.7685 11.4337
18331 2 9.02336 5.62618 11.7334
24858 3 4.42297 5.41037 14.202
16486 1 8.13493 5.32105 13.0725
721 1 9.1193 7.19084 11.5648
15972 1 9.4251 5.79847 15.3155
4844 1 9.54225 9.43562 15.5153
1875 1 4.9155 8.09714 15.6166
3223 1 7.00522 4.92769 15.4796
13925 1 8.43082 5.05012 10.372
9254 1 10.1843 9.50198 11.9249
8924 1 13.3085 5.96464 10.3346
22732 2 14.2603 4.61457 10.4263
1613 1 10.4656 5.02598 12.1154
7224 1 11.7908 5.35963 14.3243
21642 2 11.0611 8.8879 15.2576
27054 4 12.7559 6.85751 12.6201
4301 1 11.5856 8.8417 13.7037
14655 1 12.5573 9.83443 11.6905
26286 3 11.2828 9.91371 12.6519
21676 2 13.9023 9.97331 12.5617
17077 1 14.5556 8.52788 12.7354
19191 2 10.9781 5.92198 15.6546
26 1 15.3238 6.55714 14.2521
21167 2 15.8181 7.57414 13.114
11905 1 11.2966 7.42688 15.9238
29070 4 7.67877 4.34283 8.44535
22302 2 11.163 4.24671 13.3124
11335 1 11.9369 10.0845 15.8453
3388 1 17.9645 9.46048 15.9902
24865 3 17.0238 7.44605 10.5081
19111 2 16.1491 6.07928 15.5263
4361 1 19.6305 4.26357 12.9184
12785 1 21.7214 5.57497 15.3485
19599 2 20.4868 5.26665 12.0257
6932 1 17.5699 6.80145 15.4729
8178 1 19.8669 6.75878 11.9511
7192 1 16.5717 6.92511 11.7663
23528 2 20.4144 9.39018 13.6408
10894 1 16.9238 8.5119 13.7325
12783 1 18.1483 8.42567 10.7987
1718 1 19.5629 8.30862 14.4364
20882 2 19.634 8.18207 11.1037
23320 2 18.0851 8.29377 14.9282
410 1 20.5227 9.22961 12.0209
27002 4 19.468 5.31551 14.9764
12122 1 20.8764 4.83446 10.5391
2978 1 16.1676 4.47521 15.5676
11840 1 21.9543 9.46615 13.9892
5950 1 18.0965 4.27616 10.9463
8089 1 21.9411 5.32336 12.8476
10994 1 19.8671 19.3385 15.9805
26955 4 4.88318 12.9504 10.1842
3119 1 4.34638 15.5973 12.1145
27310 4 8.11096 11.8771 14.3525
13397 1 5.7195 11.3229 12.4012
26254 3 5.51571 12.6397 13.0999
16572 1 5.92688 12.5087 14.5517
7868 1 6.38776 13.5731 12.3553
18069 2 7.44644 14.7309 12.1204
4102 1 8.18381 15.0946 13.5187
9411 1 8.65496 14.2337 11.186
20344 2 9.65645 14.8227 14.1421
7799 1 9.6298 14.552 15.7519
14578 1 6.65661 16.0227 11.4543
18755 2 5.00057 12.4147 15.9272
17141 1 10.1459 13.39 13.594
25123 3 5.29782 16.0962 10.9927
6366 1 13.2659 12.4112 10.2945
9444 1 10.8043 12.9371 10.4665
6096 1 13.7264 10.811 13.9744
2586 1 15.0171 10.9612 11.8194
2042 1 11.2106 11.1943 13.2407
23302 2 12.8992 11.2509 15.2484
19574 2 14.7816 11.8721 10.5407
25581 3 11.4409 12.6493 13.589
12171 1 12.0592 12.6287 14.9322
8230 1 12.323 13.2458 12.5805
19246 2 12.202 13.4572 10.9408
6972 1 12.4852 15.0102 10.7007
28212 4 14.1661 15.539 12.2628
21095 2 15.522 14.9055 15.1511
598 1 15.5187 14.4339 13.5773
4244 1 15.8042 13.168 10.5403
29958 4 15.4075 12.204 13.8391
5095 1 10.6437 15.9942 13.9499
28040 4 17.3619 10.3098 11.9677
11067 1 19.6502 10.7221 13.9789
4975 1 17.684 11.8608 13.5119
26309 3 18.7567 11.6644 14.3793
4333 1 18.5059 11.6618 10.4235
12412 1 20.9791 12.2053 11.2179
8015 1 18.9502 12.5828 15.326
1759 1 20.6656 14.2885 12.985
29861 4 17.6754 13.3587 11.7868
3616 1 19.2877 15.1611 14.9413
18155 2 19.7033 15.5053 13.4632
17165 1 18.6541 15.56 12.3122
23448 2 18.5725 15.9764 10.7391
21272 2 18.5675 14.0794 15.9067
20025 2 21.6863 13.3148 12.1885
4003 1 17.0047 14.4647 15.7004
28347 4 7.48264 17.8337 10.2676
25487 3 5.07848 21.9261 15.6696
630 1 4.95676 17.4996 10.778
26640 4 4.55591 17.6281 13.2279
13294 1 7.71106 17.9721 15.1308
13755 1 5.26555 18.8673 15.1444
17785 1 7.36479 20.5094 14.8874
23873 2 4.50517 19.0071 10.5874
9398 1 6.62632 19.0227 12.9643
21119 2 6.76366 19.0987 14.5779
11860 1 5.84553 19.8948 10.5487
20891 2 6.70925 20.2211 11.9398
6220 1 6.07301 21.6118 12.3252
5811 1 8.2168 20.2672 11.4739
21284 2 8.67457 21.3624 15.0603
23472 2 9.73116 19.642 11.2865
16571 1 9.7107 18.0862 11.0184
5333 1 9.8864 20.5098 14.5048
10845 1 13.6946 21.8652 12.4556
4020 1 17.2158 10.8062 4.28293
9801 1 21.3231 21.5277 15.8503
10827 1 14.8687 16.341 15.2102
5910 1 13.7991 19.9078 10.134
17426 1 12.3127 16.6175 15.8159
27293 4 11.6072 17.3753 12.0201
23906 2 10.9513 17.1569 14.9926
219 1 10.7713 20.0272 12.3977
24632 3 11.0775 19.9431 13.8294
27486 4 15.3305 18.4097 13.6885
29939 4 11.9247 21.6163 11.135
6215 1 12.2442 20.6907 14.2598
24247 2 13.5625 21.5286 13.9916
11051 1 13.8761 17.9333 11.9413
13547 1 14.8264 20.7889 14.7017
23401 2 14.1557 18.3481 10.3722
6934 1 11.2281 18.4793 14.1136
9883 1 13.9887 18.6939 15.7138
18541 2 12.6775 14.7134 4.20626
21805 2 18.1168 19.7435 13.2521
3056 1 21.12 17.976 11.333
2002 1 18.2619 22.0075 10.9007
26940 4 19.7872 19.7262 10.3383
9 1 21.7982 21.5817 12.7373
1590 1 19.5415 19.3982 12.7012
757 1 17.1573 20.2414 12.0892
4616 1 18.2645 21.1265 14.1488
7204 1 20.339 17.0119 13.5162
16061 1 18.0859 17.4485 10.4643
18917 2 20.7842 18.3904 12.8487
26354 4 18.9351 17.411 15.4522
16480 1 17.4345 18.6332 14.1868
25266 3 17.2513 21.5864 11.7106
5400 1 4.13654 13.1326 13.1279
11411 1 20.4351 22.102 4.86669
20169 2 13.7616 17.143 16.1043
13913 1 4.12795 21.7525 14.5973
19085 2 4.12269 18.2628 16.0879
23933 2 14.4872 20.1618 16.1353
2659 1 14.5724 13.9569 16.1313
13669 1 13.3257 20.8364 4.19188
16432 1 5.10883 9.3903 19.602
3118 1 7.20982 8.99706 16.6827
19709 2 5.49116 8.05843 20.3397
8338 1 6.98897 7.78409 19.8451
3848 1 4.57025 6.75852 20.0998
24693 3 7.94497 6.6991 19.877
21258 2 8.55165 9.86183 16.7501
13398 1 8.43417 6.58501 21.2451
13908 1 9.21367 6.9148 19.0492
4459 1 7.23112 5.43945 19.4594
16115 1 5.29669 8.69465 21.7796
28333 4 8.04161 5.73187 17.3741
4922 1 9.45791 9.44835 18.038
23234 2 9.31503 7.84496 21.72
15862 1 9.62675 8.95775 20.5703
20868 2 9.97929 8.34225 19.1355
17373 1 19.7218 19.4003 22.7717
1663 1 15.1162 20.8131 28.0092
29754 4 4.65903 9.89121 17.483
18961 2 4.7354 10.1828 21.1794
4590 1 11.2569 4.5966 19.3248
5030 1 11.5473 8.36369 19.1333
22902 2 14.5064 7.02062 20.8924
2710 1 12.9826 6.6067 21.0647
2425 1 14.6977 8.6508 21.174
27531 4 12.5113 6.32633 18.5455
13888 1 14.9347 6.6338 19.4203
2447 1 15.4816 6.53088 16.9146
20931 2 15.5191 5.68193 18.2862
20514 2 15.6508 9.98955 21.112
7248 1 11.4533 4.98869 16.832
27579 4 12.4803 9.54631 20.9865
3654 1 11.6128 4.95974 22.1417
27849 4 12.7241 9.94453 18.0739
13967 1 14.4592 4.40207 18.1724
7237 1 15.3562 6.26358 21.9823
25719 3 12.0296 6.44297 22.1515
11435 1 10.7832 7.15724 22.0587
13752 1 4.23133 13.7932 16.2743
19876 2 18.6329 4.81117 18.5423
10168 1 17.0049 5.06945 18.4811
25253 3 18.5668 9.65493 17.424
8503 1 18.3057 8.42268 18.2008
14745 1 17.8151 7.76277 20.4202
2398 1 20.0481 9.88495 17.3753
25755 3 18.3745 7.50303 19.2079
15312 1 19.0898 6.33279 19.0374
15406 1 19.5855 9.29277 21.428
23582 2 20.9917 8.59192 21.0311
20462 2 21.2734 9.04377 17.8306
1017 1 21.2854 7.5713 17.076
13327 1 20.9308 6.99967 21.3918
2541 1 21.1102 8.68167 19.3926
23834 2 18.1827 8.60684 21.7726
21729 2 20.9567 5.44566 21.8393
4946 1 21.7806 4.7967 20.5626
13812 1 19.2883 4.53741 17.0933
3441 1 16.9485 9.64266 21.9747
28338 4 21.6664 6.32842 18.9746
10154 1 5.7607 11.4061 20.9279
14148 1 8.16699 11.42 16.785
16281 1 7.55303 11.8456 18.9991
7985 1 5.87876 12.0506 17.201
25393 3 7.34772 12.2672 17.6285
23188 2 6.92504 12.3741 20.3702
17200 1 7.74138 13.669 17.4123
15648 1 6.2102 13.778 20.0671
27254 4 5.74114 15.2315 17.1442
9452 1 5.12576 15.7731 19.2203
25330 3 5.88372 15.1872 20.2883
20138 2 8.73603 14.9892 17.0764
146 1 8.17109 12.4974 21.4103
14734 1 5.10615 15.2902 21.5224
29486 4 9.67367 11.202 19.6516
7894 1 9.7781 15.1944 18.2739
1797 1 7.10883 16.0606 20.4008
2894 1 21.862 6.38273 24.3456
566 1 11.9377 11.4078 19.6567
22821 2 12.3746 12.98 19.5871
18767 2 14.3813 12.8738 17.3001
7839 1 13.1946 13.3104 18.2629
7943 1 13.2367 13.2853 20.9155
3823 1 11.0112 13.9137 19.7443
25592 3 10.3475 15.0883 19.4946
20156 2 14.6425 12.9432 21.6817
9786 1 15.669 12.4318 18.1748
3571 1 13.8589 11.4577 16.5659
10560 1 15.8476 13.7996 21.1043
7840 1 14.9481 11.3562 21.6719
17134 1 10.533 16.1676 20.3724
4129 1 16.1014 10.377 19.6169
4360 1 16.7074 19.1439 26.7597
13567 1 17.9949 10.9426 17.9634
19168 2 16.8703 11.5754 18.8219
29623 4 20.0375 12.0585 18.0141
7385 1 17.5127 12.6444 19.9492
24780 3 16.8234 13.7745 20.1686
610 1 19.0406 14.1013 17.4851
12193 1 17.0312 14.765 19.2339
23444 2 18.4554 15.1455 18.568
4076 1 19.502 15.0338 19.8176
23430 2 20.7547 15.3322 20.6809
7420 1 21.3041 14.0395 21.4758
15916 1 17.8393 22.0034 16.295
29907 4 20.4606 16.6735 24.1106
15134 1 7.83249 16.2282 16.8463
21819 2 4.60953 17.2836 18.9845
8305 1 4.88086 17.5942 17.3783
25276 3 8.33305 17.6229 16.3557
22665 2 6.82218 17.639 20.7747
16069 1 5.49037 18.1455 20.0241
14411 1 7.90516 18.5632 20.0433
17700 1 8.17193 18.6667 17.374
29638 4 5.15462 20.3397 20.6549
2204 1 4.69956 21.3369 16.9006
19103 2 8.83737 19.0197 18.7839
6403 1 8.97094 20.6629 18.9516
29748 4 8.52709 20.4561 21.3074
12987 1 9.06738 21.7554 16.5478
5012 1 6.62683 21.6201 21.8729
22141 2 9.6874 21.7253 17.9648
25721 3 20.008 4.17178 27.8915
10053 1 14.0913 16.8951 17.6258
4988 1 12.711 17.198 19.6727
23825 2 11.1998 17.5989 20.0497
25730 3 13.6224 17.8189 18.7493
14098 1 10.3205 18.4045 18.9316
4084 1 12.9326 18.968 18.1347
23966 2 12.5642 20.5199 18.2184
1501 1 11.1833 21.1663 17.8231
7265 1 13.142 20.9492 19.6466
8970 1 13.5069 21.0593 16.9596
19265 2 13.5632 21.2741 21.1797
8992 1 14.8797 18.3438 19.4507
5282 1 11.386 18.634 21.2791
14772 1 15.6223 19.8772 17.2266
10216 1 12.1936 21.8906 21.7715
26775 4 15.2971 18.069 21.7483
22733 2 15.9072 19.4044 18.7532
16325 1 15.9147 20.6927 19.6963
4593 1 6.01369 4.2672 21.5437
5132 1 21.975 15.886 19.8039
13522 1 20.3024 16.4368 21.8392
25386 3 18.9377 16.5623 21.5107
6409 1 18.3583 16.6018 17.9076
22 1 18.5377 17.2314 20.4284
18641 2 18.6353 17.8791 18.9103
4163 1 20.1485 18.3231 18.7841
10062 1 17.4465 18.8259 18.6699
23460 2 17.281 21.3523 20.2938
14873 1 18.244 21.6091 19.0025
9395 1 17.7379 20.1773 21.2982
21233 2 21.2049 20.0293 16.5602
16044 1 21.207 19.6266 20.5445
25166 3 21.3467 19.0908 19.1534
2015 1 21.4509 20.1742 18.1348
3517 1 20.4057 21.739 21.795
20900 2 20.8997 20.2241 22.0222
26599 4 17.7302 19.729 16.3782
27681 4 5.11414 6.07899 22.7998
15472 1 6.63632 4.38436 25.4459
3588 1 9.09976 5.41872 25.1989
28124 4 6.07159 6.47465 26.2743
6637 1 8.15008 6.59243 27.282
6699 1 4.71622 8.12868 26.9699
26621 4 5.14045 8.95182 24.1232
10658 1 7.38054 9.79846 24.7888
19807 2 7.89096 8.33726 24.3775
4917 1 6.60891 7.35507 24.208
11037 1 8.68547 8.5732 22.9839
24694 3 9.17027 6.60652 26.2297
126 1 8.95684 7.77715 25.4258
27548 4 9.34323 4.9582 22.6141
5337 1 14.8728 5.12162 28.1534
27726 4 11.3636 5.55547 24.9352
20765 2 13.6962 7.45479 24.5764
22409 2 11.8773 7.32752 27.1699
3244 1 12.9069 7.20178 25.9732
691 1 14.1381 8.99977 24.2771
13674 1 12.689 6.78588 23.5075
14292 1 10.564 6.48881 26.7497
3264 1 15.1638 6.61115 24.5344
3243 1 11.4672 8.88465 27.4648
24252 2 15.5096 5.51798 23.386
27833 4 15.6818 6.63801 26.7447
1963 1 14.4915 4.24131 23.51
25000 3 11.0743 10.1811 26.9537
1580 1 14.5727 22.3098 21.8056
12520 1 19.4273 5.20897 22.3319
2904 1 16.3278 8.99076 26.6215
7732 1 4.25358 4.47179 18.6542
17217 1 19.431 5.00136 26.9053
3978 1 17.0888 5.18344 23.5134
25505 3 19.2604 6.27844 26.2604
10627 1 20.5606 7.07233 26.5614
11558 1 18.0601 7.03684 26.6038
5934 1 18.0816 7.58476 22.9828
28390 4 16.4038 8.78622 24.1644
9439 1 18.8925 9.57293 26.3631
19900 2 17.8517 8.55696 27.0867
11896 1 20.3529 8.52227 24.4845
18693 2 18.5524 6.08229 23.4086
8174 1 19.2654 5.99795 24.8002
18722 2 21.3293 7.50872 25.2553
10741 1 21.7921 4.54494 22.9865
23075 2 19.9057 9.89184 25.1465
14617 1 9.7049 10.3832 27.2536
21431 2 7.09653 11.3578 24.7812
9858 1 5.71517 11.374 24.0295
1014 1 8.95644 13.1309 27.408
7899 1 7.23483 12.0545 26.1626
13110 1 8.23455 12.0139 23.8046
25305 3 7.92038 12.2283 27.32
25980 3 4.44473 11.9116 23.6171
12291 1 4.53231 13.1566 22.9956
25251 3 8.27885 13.1084 22.7107
13736 1 7.04653 13.9367 23.0681
22407 2 5.53834 14.4497 22.8686
11890 1 5.09463 15.4026 24.064
29840 4 7.37946 15.2017 26.8245
3549 1 9.14606 14.756 25.4086
17340 1 9.46323 13.9092 22.9027
21936 2 9.64116 15.1733 23.8524
946 1 5.51509 14.3719 27.8541
29538 4 4.50329 13.9041 25.8487
23892 2 10.0785 13.9176 26.4702
27995 4 9.95085 10.4237 23.6152
8714 1 11.3955 10.3133 25.4982
14210 1 14.3811 10.2727 27.3217
25250 3 15.7908 10.2927 26.9269
7860 1 11.9546 11.1538 27.6937
27519 4 14.4003 11.2009 23.9346
23963 2 13.4536 11.5834 27.3785
7334 1 12.0962 11.6733 23.5318
8879 1 11.1571 14.5223 27.4857
21248 2 11.8879 11.8032 25.0728
11472 1 13.2507 12.1575 25.8607
16328 1 10.888 12.9309 25.4781
28047 4 11.7531 13.7345 22.4856
4661 1 11.1707 15.5981 23.6564
7383 1 13.4904 15.3035 24.4746
29943 4 13.3236 14.4682 26.8082
15970 1 14.5261 13.4154 23.2183
19592 2 14.8892 14.6074 24.2268
9167 1 15.7606 13.9142 25.5102
11869 1 15.948 11.3176 25.6763
16972 1 15.8211 15.8147 23.7054
15630 1 20.2678 14.5117 27.9858
5503 1 18.0115 16.0019 22.324
6444 1 16.597 10.9898 27.9507
16081 1 21.8817 15.6731 25.7094
6643 1 21.1525 10.4195 25.8596
8475 1 19.2076 10.9549 24.1521
903 1 20.8451 13.827 24.1353
24938 3 18.5504 12.0527 23.4268
26964 4 20.4076 12.4752 26.8471
23408 2 20.8803 13.0789 22.7256
1388 1 17.4781 12.611 24.0015
1545 1 19.2829 12.7005 22.5405
18553 2 16.7873 12.6674 25.4504
4258 1 17.9323 12.7699 26.5809
28868 4 18.5021 15.238 26.7238
13413 1 21.8552 11.7604 22.6715
19217 2 17.6615 12.1556 28.0507
4953 1 7.0179 17.8867 22.3518
13215 1 8.83798 16.5112 23.4959
29999 4 5.24028 17.8595 23.8801
12102 1 7.54253 17.543 27.5298
19417 2 8.11126 17.9437 23.5298
10389 1 7.41385 18.1287 24.9351
2027 1 5.36761 18.4853 26.5322
23154 2 6.97768 18.5833 26.3832
701 1 7.43957 20.1106 26.4842
6615 1 6.82183 21.0673 24.2496
25756 3 6.20424 21.7305 23.247
24327 2 8.01089 21.0547 25.3936
9715 1 9.08984 19.1263 23.2218
29914 4 4.89367 20.6824 27.2219
313 1 9.52894 20.5172 25.128
1339 1 9.90382 21.434 22.913
25615 3 10.0307 20.1375 23.6698
5749 1 13.5919 19.7556 21.8902
22577 2 12.4062 16.4672 24.2446
8974 1 14.225 16.5185 27.3494
9270 1 15.5359 20.912 25.2689
16354 1 12.3163 17.2384 25.6081
8160 1 12.9239 17.5525 23.1531
19644 2 13.2647 17.6759 26.7723
18584 2 12.3338 18.9443 22.4968
8634 1 14.1082 19.0237 26.3578
27352 4 12.0778 20.2881 26.0717
15494 1 11.4793 19.7642 23.614
21511 2 15.363 20.0514 26.5899
28395 4 11.9748 14.3756 16.4637
12117 1 18.7343 17.4457 27.8678
21561 2 18.0888 19.5982 22.781
16712 1 18.2169 16.3458 24.8388
21063 2 17.2467 16.5755 23.5863
8065 1 19.1077 19.2791 25.8621
15881 1 20.4136 21.2057 25.1778
24123 2 18.2142 18.8506 27.17
703 1 17.6962 20.7766 23.8025
24723 3 20.1854 19.8361 25.2467
19275 2 16.7056 21.7493 24.6477
97 1 17.19 18.2589 23.2216
5326 1 21.2379 18.9669 25.0643
1985 1 4.24729 19.6594 22.4857
14486 1 4.26057 21.9984 19.4809
4433 1 3.95125 4.6372 25.9333
8248 1 12.3283 18.0344 28.0517
16105 1 11.2798 20.2507 28.2296
12313 1 7.60495 9.06401 32.4075
19961 2 6.32252 8.22807 32.9688
17650 1 4.93907 8.97858 32.739
19388 2 7.90689 7.14075 28.8049
11166 1 6.361 6.90751 31.9637
14512 1 6.35949 7.262 29.3319
15055 1 8.41573 8.65925 28.8172
19980 2 5.58646 6.59384 30.502
1983 1 8.54096 6.06454 29.7858
28588 4 8.46266 6.18297 32.2966
1471 1 5.61043 4.95745 30.3077
20334 2 9.0578 4.53905 29.9834
2713 1 10.0704 7.15477 34.3518
7207 1 5.06706 3.89137 38.8506
21436 2 8.8949 10.159 28.601
25054 3 12.9026 9.43999 32.1924
28041 4 13.673 8.65593 29.1013
17075 1 13.9173 8.85201 31.3286
3069 1 11.9409 8.50167 32.8913
19811 2 11.2763 7.07902 33.2737
26950 4 10.8181 8.04358 30.192
4221 1 10.6426 6.57088 31.9442
10936 1 14.2992 6.78264 32.7357
20533 2 14.8997 7.56953 31.49
1617 1 15.0662 6.85639 30.0697
20573 2 15.6549 5.41504 29.5274
1754 1 12.3482 6.01961 33.7919
24523 3 13.6226 6.43009 33.8758
29229 4 11.2066 4.35453 31.8202
13356 1 10.6622 4.28241 29.6506
28027 4 19.2428 22.1291 32.1695
30035 4 12.7206 4.64159 28.5764
557 1 18.6134 19.9899 28.2685
5216 1 13.6036 10.1989 33.332
14683 1 16.421 8.07715 31.9967
13900 1 18.1074 8.64973 28.6311
29513 4 18.1021 8.82134 30.8105
19476 2 17.0073 8.38735 33.4946
16396 1 18.4443 9.10303 33.4274
19237 2 20.8649 6.83802 31.0231
10312 1 19.3043 6.32819 30.9053
14995 1 21.1134 8.17504 30.1444
13084 1 21.2584 7.13796 32.6023
16076 1 17.2491 5.66436 29.3904
22384 2 18.5374 5.06812 30.1993
13001 1 16.4136 4.74528 32.8187
22215 2 17.1875 5.18932 34.157
29771 4 20.3399 9.77558 32.7841
768 1 21.9012 5.81398 30.4376
10674 1 17.2133 6.8483 34.1344
80 1 19.5931 4.37065 29.1849
1604 1 8.19186 16.3506 40.1704
15097 1 18.7198 4.66657 34.1634
5781 1 12.2413 6.86764 28.6351
8732 1 7.76721 11.2183 28.3272
16017 1 9.78927 10.5955 29.8862
8914 1 9.70067 10.61 32.5181
19058 2 8.11747 10.5344 32.7235
895 1 7.31192 11.5403 31.733
7188 1 5.09543 12.8526 32.688
17985 2 6.45299 12.9017 31.6677
1554 1 5.98103 13.4452 30.2511
16343 1 7.28343 14.0754 32.3861
19043 2 5.00795 14.2544 29.2934
15981 1 4.77301 15.7407 30.0241
11944 1 8.29587 15.5447 28.9811
20354 2 8.41182 14.7991 33.262
28540 4 9.9055 14.1111 29.4069
2362 1 9.84796 14.27 32.8307
28570 4 6.98125 16.0558 30.9951
21359 2 4.47748 13.3051 34.0754
14758 1 4.10366 10.7493 29.6692
14109 1 12.0302 10.333 31.3885
19587 2 10.6165 10.9991 31.2225
10728 1 10.8843 12.6526 31.1424
4038 1 13.9426 12.5875 28.4772
3538 1 14.3854 12.6312 30.823
24622 3 14.184 13.2559 29.597
19437 2 11.1827 14.0799 31.9217
5009 1 11.2281 15.2873 30.836
12592 1 12.3742 14.063 32.962
10068 1 14.4504 14.5902 29.5656
17356 1 14.6668 14.0968 33.3433
20942 2 15.1639 13.0843 32.1407
25038 3 13.4549 14.8379 33.734
15567 1 15.6804 11.7134 32.881
18214 2 14.9861 10.7133 33.9319
8512 1 13.4446 16.2195 33.2558
29298 4 15.5328 17.4358 32.3634
27610 4 12.7166 16.0579 29.3347
12831 1 4.50884 10.9279 40.11
1245 1 19.0989 10.9427 31.1247
28714 4 17.8911 11.4787 33.0004
14006 1 19.1311 11.7574 28.7094
24071 2 19.6444 12.1602 30.2619
12084 1 17.0842 13.2911 29.0331
3497 1 18.9202 13.5261 30.656
16254 1 16.5125 13.7611 31.6072
19915 2 17.4624 14.1425 30.3664
15069 1 17.4455 15.7594 30.1198
1409 1 20.6465 15.6749 32.5517
9736 1 21.2205 12.0692 30.1635
23420 2 21.4138 15.2897 28.7576
5312 1 21.6828 14.9652 30.2708
23587 2 21.9989 15.197 31.7853
6340 1 9.35327 21.7743 28.4846
16857 1 8.39384 16.3813 32.9481
10324 1 5.10578 17.3114 31.7034
17937 2 8.4937 17.1005 28.7444
26994 4 5.06427 18.2132 28.8209
23785 2 8.3379 18.02 33.0966
4983 1 8.05353 17.8873 30.0889
3716 1 6.8311 18.5026 33.1281
18295 2 5.23829 18.2799 32.9778
145 1 5.6548 20.3679 29.3118
21849 2 6.50701 21.0229 30.4459
24721 3 4.53988 21.0205 32.4199
7250 1 5.58391 21.3963 31.6855
10178 1 7.78535 20.1414 30.9181
5262 1 4.52366 19.6388 32.8673
26182 3 8.7314 19.08 30.776
5507 1 9.29988 18.6522 32.0428
3809 1 9.79299 19.6117 29.7572
6250 1 9.94561 17.5835 28.4033
28754 4 9.96225 21.0922 34.1132
17801 1 15.4971 4.28571 30.618
25797 3 10.3142 20.9388 29.1052
28240 4 15.4768 16.5468 29.1475
28587 4 11.1059 17.0786 32.1871
4607 1 14.169 17.6698 30.6083
10971 1 11.8929 18.4002 30.4292
23878 2 11.0408 18.6643 28.9268
25333 3 13.2038 18.7106 30.4187
8375 1 13.64 19.9527 30.1877
14720 1 12.0088 20.6183 32.5956
16838 1 11.076 21.6828 30.1113
18731 2 11.5743 21.9241 31.6408
20060 2 14.7469 21.0432 29.5453
5338 1 14.7085 20.9999 33.4246
20172 2 13.2426 20.3431 33.6227
14815 1 13.4817 18.7483 33.4151
25241 3 16.0426 20.9271 33.1358
2054 1 16.0255 20.6773 30.4519
19761 2 5.47077 22.0998 37.0726
12854 1 19.6586 22.1806 39.4678
24786 3 22.1373 17.8979 35.1623
20213 2 21.6719 21.8814 28.6619
3541 1 18.1545 16.7404 32.2652
13395 1 20.9674 16.8729 28.5849
21882 2 19.5821 16.8394 32.9664
25744 3 17.9807 17.0021 30.7707
9583 1 19.243 17.3076 30.1492
26196 3 19.6827 17.2281 28.8786
13338 1 17.0721 18.1742 30.6656
11131 1 20.1999 18.3542 32.7263
10229 1 16.5386 19.7137 32.7168
21124 2 17.0662 19.7061 31.1415
3515 1 18.4855 20.3936 30.8662
21194 2 18.9009 20.9844 29.4366
6873 1 20.4554 21.3482 29.5381
7186 1 21.1493 20.9357 32.7435
17912 2 21.408 19.3473 32.8531
12986 1 16.9501 21.9265 33.4804
19348 2 22.2085 7.26802 33.8957
4547 1 19.2333 16.601 34.534
21653 2 7.89622 9.535 40.0273
8742 1 6.54864 8.10573 34.5687
16177 1 8.31845 4.88216 36.3559
28658 4 5.01707 4.69695 36.7227
15564 1 7.82775 6.0585 38.826
25910 3 5.76976 7.32219 35.5058
22003 2 5.00254 10.0059 38.8358
8783 1 4.63585 8.11061 36.0407
613 1 6.39266 6.64279 36.6333
11376 1 6.44442 9.53264 39.3508
15207 1 8.82895 7.351 36.7996
16949 1 5.13943 6.30803 34.5815
21900 2 7.84527 6.18626 37.1576
4 1 8.99589 9.94534 38.9004
1576 1 9.80397 9.48166 35.5453
19157 2 9.97116 7.96098 35.8135
11967 1 9.9682 14.4952 40.226
21107 2 22.0497 12.4368 36.7234
5920 1 12.845 9.2913 40.2797
1439 1 11.9479 4.98983 36.957
8561 1 14.142 6.8309 35.0594
12322 1 11.3658 7.67409 36.6692
26672 4 11.1658 9.22829 38.5014
6039 1 13.8883 9.01912 36.3373
18225 2 14.3331 7.50864 36.4605
4886 1 13.5587 6.92616 37.7752
20111 2 11.9998 6.51037 37.5688
9992 1 11.2723 6.54089 38.963
28663 4 15.0157 8.26188 39.1353
13600 1 15.8957 7.35594 37.0679
16408 1 15.9206 9.33944 34.2041
7863 1 16.3309 4.45977 35.3048
24730 3 21.9568 5.24374 35.7744
25700 3 17.8524 4.39539 37.6054
15353 1 20.7388 4.69273 35.7444
233 1 21.4773 8.30263 34.8668
28772 4 20.9819 5.43475 38.4744
12567 1 21.0213 7.70008 38.4471
29636 4 20.4373 9.29547 36.7715
28589 4 19.37 7.10514 34.8465
2220 1 17.5935 7.55464 39.0672
14397 1 18.3512 8.30577 36.6555
19867 2 17.4503 7.30456 37.4573
16836 1 18.0165 5.73461 37.2369
12945 1 19.1978 5.60043 40.121
19738 2 18.1895 17.2738 35.5716
14977 1 7.72139 10.829 34.2716
28591 4 5.68237 10.2697 35.0337
5870 1 20.6524 18.5994 38.659
19038 2 8.88387 10.8011 35.38
16754 1 8.22593 11.0635 36.8063
1757 1 5.02366 10.9733 37.553
25208 3 8.97458 11.2075 38.1545
15133 1 6.86951 14.2704 39.7342
15487 1 8.28008 12.2738 38.8032
4562 1 4.92651 12.3287 35.2735
18815 2 4.94767 12.4151 36.9382
11955 1 6.10607 13.2979 37.4958
20400 2 7.45397 13.5989 38.4372
15683 1 4.68701 14.8635 34.4427
21440 2 8.3802 15.569 36.2202
8556 1 8.37881 14.6105 37.5422
3642 1 8.22779 14.7692 34.8365
21634 2 4.22691 16.2852 35.074
7706 1 9.91598 11.9734 35.0777
29430 4 11.5716 10.5277 34.3483
2646 1 15.3361 10.3713 37.9012
23190 2 14.2125 10.524 36.8159
27770 4 13.6267 11.2207 39.6024
9854 1 14.7898 11.3087 35.4439
10873 1 13.0007 11.3768 37.4272
9890 1 10.3869 11.4662 37.8697
21841 2 11.7588 12.3495 37.7436
10518 1 11.7386 13.7047 36.915
26869 4 10.8419 13.9268 34.8648
9171 1 13.0603 14.9796 35.1421
22694 2 13.0121 14.7601 36.7271
26636 4 10.4308 15.5562 38.069
17297 1 12.6183 15.9413 37.7254
15102 1 14.4338 14.1281 37.0252
11886 1 11.9524 12.9777 39.2244
6651 1 15.0872 14.7042 39.4095
24065 2 15.5159 14.9379 37.9373
29901 4 15.9039 13.4209 35.254
3508 1 22.1146 19.9651 40.3121
29588 4 17.3315 10.1181 36.062
15489 1 21.8329 12.5946 38.2991
28865 4 16.8646 11.371 39.2655
29083 4 20.8551 14.8229 34.6918
12550 1 18.5693 11.8613 37.8185
58 1 20.6323 11.7565 36.053
9259 1 18.1246 12.0783 35.2001
18588 2 19.1527 12.4142 36.3959
11542 1 19.244 14.0131 36.5424
17470 1 19.1799 15.0707 38.9478
16718 1 16.973 14.52 37.6009
18973 2 18.4575 15.0449 37.4797
28690 4 19.9858 12.4768 39.4509
12260 1 18.4927 18.8875 35.53
5364 1 9.7253 16.4102 36.1487
2474 1 7.40619 21.3604 34.2672
4214 1 4.25362 21.3432 36.4031
8036 1 4.69153 16.3508 36.672
17231 1 7.19674 16.5292 36.5712
1032 1 4.84343 17.5455 34.3788
9630 1 6.49827 19.6078 39.9253
27783 4 6.68802 19.5212 35.2625
2269 1 5.89814 16.5112 38.9415
23411 2 5.9356 17.0307 37.4139
15276 1 5.95076 18.6251 37.3543
21943 2 6.84125 19.6467 38.3769
5020 1 6.48825 21.0584 37.7311
1755 1 8.35843 19.154 38.151
2057 1 9.00537 18.3219 34.558
18775 2 9.89981 19.5319 37.9671
2150 1 9.95226 21.1083 38.0915
18173 2 13.1029 17.4671 34.2421
27998 4 15.6546 17.4328 39.7546
792 1 10.5344 18.9454 36.5852