(written by ASE)

13473 atoms
4 atom types

0.0      55.430917325930807  xlo xhi
0.0      55.430917325000003  ylo yhi
0.0      55.430917325000003  zlo zhi

Atoms # atomic

     1   2      25.084308834711496      4.0191626769034876      50.844743434662377
     2   2      26.607228678954773      8.1775697892580403      25.111086770855707
     3   2      16.123178287019886      22.163893207685774      41.335875442919317
     4   2      33.471031750060611      8.2078339177883723      51.149393651372456
     5   2      42.490726366108149      34.049872477199152      26.653834205651449
     6   2      40.563842500168704      8.0754265304986603      11.019517445886832
     7   2      17.389077394647916      48.978982833744404      24.149910955492395
     8   2      49.260754460195834      16.176128713725817      1.1320105973493262
     9   2      21.331263710268765      9.2754752535250109      17.844611379651397
    10   2      51.858914613514706      36.290166191493604      28.559915037592965
    11   2    0.070423994414506585      1.5106146184240783     0.43607024427583335
    12   2      43.674004557910372      51.142349265547161      26.129800424443683
    13   2      12.578977528863293      47.481074223279343       17.63034764908123
    14   2       21.10577310849407      42.757072575993462      9.3251873739164548
    15   2       43.66174601269806      6.6161583238066584      5.7039951322683704
    16   2      19.616979919117675      19.941971107258727      10.848361974782724
    17   2      36.356033716964212      24.610703799726839      39.530975045786711
    18   2      17.439392299089008       36.47362188524307      42.859387427396442
    19   2      12.206644012189818      2.3330997739943742      35.960492894291143
    20   2      17.634528304379739      51.852951082153673      14.184926017409442
    21   2      42.627427205030287      5.5361685523734883      34.093528856772167
    22   2      31.811940161007392      42.225624692054744      24.498809486956489
    23   2        11.7808191143902      33.361253394770905      32.884215498037499
    24   2      42.855338035723484       9.233446615357094      52.267771902781661
    25   2      7.7212503104107837      49.150783697429056      33.315401957001427
    26   2      20.818432237949228      14.360007296909586      47.428626822600087
    27   2      40.865598977418124      41.862599496889175     0.27788655453880573
    28   2      54.246626047943998       23.18420607685416       53.00966291624264
    29   2      23.095378099053136      30.587015261258792      30.236272692185906
    30   2      53.496526610021583      44.319446678043683      36.558696015664786
    31   2      23.990137567611537     0.78517343582777688      31.548025524781718
    32   2      10.866838928291116      35.193856542336441      29.799969608292145
    33   2       16.60455246318682      9.0688174796341521      52.460758786448814
    34   2       55.26010556879146      7.1534072698932496      5.6805279625551099
    35   2      34.647269882394916      27.429320555513467      16.509434417387489
    36   2      21.289947662040596      33.408050450597152      45.566719944526859
    37   2      22.985729495631357      19.425869660735817        32.1596492024482
    38   2      38.277898652104838      3.7321379626088076      53.368053116617581
    39   2      22.979560175241151      42.210552397749723      28.872365563190165
    40   3      3.6057584410747969      19.591034095988874      38.603159539038103
    41   3      5.2370154326087102      49.488130265158823      8.6907430866516435
    42   3      2.3986729840399619      39.163684965084101      53.714804106036702
    43   3      27.799941606422436       13.78109376340373      25.032817921369173
    44   3      54.831518672981829      49.903920394682679      24.447903306739391
    45   3      13.736519164600981       17.78284337538576      50.288905879399373
    46   3      29.064297993383651      16.597435479374294      9.0891676557976862
    47   3      39.120583806020612      29.944748093114775      49.188891685422959
    48   3      35.716619223304214      35.924731892572019      40.723645600716281
    49   3      41.109339241769625      27.087365821260679      23.887809868919017
    50   3      36.365332236598846      30.612645746223127      14.349238227523315
    51   3      15.167601076923884      3.7419095270459373       25.66241560865511
    52   3      13.411792062348718      10.081515789708929      17.235006328027396
    53   3      18.285658326648949      26.059225908651136       52.90434477344985
    54   3      53.731107271731261      19.232630604055764      16.693115864917143
    55   3      14.445319788124596      37.227142639687742      14.832547260895163
    56   3      5.4279487538713305      47.133598758499822      10.305627887939416
    57   3      51.574844317765297       37.98308227647064      40.906494090308101
    58   3      14.747426617987164      47.275365386156793      33.857153041508248
    59   3      47.748236022468703       18.51880876940098      11.342711428395955
    60   3      49.882207725899526       12.13296909758629      38.622987802209963
    61   3      23.810444472062706      25.165973280644305      10.767146768059362
    62   3    0.090509583383234352      13.837546523650278       49.71584479147311
    63   3      4.6236832085815127      47.641281666874988      1.4508375291694158
    64   3     0.27271021010534569      45.137959499848904     0.28228402811087527
    65   3      24.430192716705658      28.617144847362859      4.4663806389700449
    66   3      37.850009896721737      2.6940686381155405      6.8955022805470145
    67   3       39.33067133590049      4.8384978868840482      6.3948565508441666
    68   3      13.761130789180402      6.9713555222881256       54.17288540864012
    69   3      30.672037189509066      50.636352028963557      53.359697669857511
    70   3       15.30976864094661      47.782791191780063      48.452274708445174
    71   3      41.071808457261724      48.531494378940515      18.888525669528345
    72   3      36.940567048034168      28.750830266142799      52.661919141033565
    73   3      25.001245215175455      21.685781415841813      34.579508818634338
    74   3      40.554468710246873      18.797974077681623      48.091593212477818
    75   3      34.028336370441536      44.143881232680933      36.287978305122436
    76   3      29.337615131364647      32.345320218150313      21.709083428375443
    77   3      16.656996225908031      13.277512440358748      43.520056231145674
    78   3      50.415967950740814      31.167570939290083      13.331796175154183
    79   3      6.2890947678405293      50.599712269201362      23.674159282557209
    80   3      8.6564775115854111      28.663590757101787      29.666932951590237
    81   3      28.038510373477489      29.668656480892675      39.206910629047805
    82   3      30.359302728917051      1.7012634647585649      7.1330776527172679
    83   3      50.609115611428884      3.9659774484620693       7.433982466196345
    84   3      16.927684392605233      33.969223223590255      31.850051411584371
    85   3      6.9168917353867077      52.645097580189351      52.063749556963813
    86   3      6.4370116154398511      16.225001604933091      39.424745252632682
    87   3      28.872065720797842     0.89200705945140579      9.6200312304039493
    88   3      26.587677716380458      28.625968010139889      33.661463269076393
    89   3      26.071328340690759      50.972183917339997      1.1993641627348031
    90   3      43.086431146196119      31.707150105898343        53.4685949315678
    91   3      18.988560915420457       33.08887740695608      30.308227248948032
    92   3      35.362992328917073      50.404834323639328       33.11108341564875
    93   3      53.653627774250239      35.973802137007603      10.091524868741471
    94   3      12.284311431153576      10.431160801587115      7.9487987293237081
    95   3      27.939667113142889      41.340799571328645      54.888157949693962
    96   3      23.624439598023748      41.519163435296143      26.579071532629627
    97   3      52.751494029143217      54.690018687890678      32.029921920330416
    98   3      43.094059864097048       43.10291117236941      19.627290949117441
    99   3      16.939547775970038      17.916793445065384      40.651621832474369
   100   3      46.032941358735343      21.854102946157521      28.659018386120419
   101   3      15.621606994047715      33.086633959006889       55.21789381254041
   102   3      28.682516815814488      41.455510872394008      40.669489229659753
   103   3      42.424380708959553      13.264641839335214      54.844480268199341
   104   3      21.325140706438592      54.565254087067636       23.31929633644004
   105   3      26.526477379882028      26.869218191639007      14.392213891940512
   106   3      47.680962837943746    0.026962776900634595      52.856619034245121
   107   3      31.167723772459809      11.594981348205351      44.501940215899261
   108   3      23.052387196398552      23.830570085584011      24.431288023135892
   109   3      15.715928496725326      38.705027840511207      0.4995523561811267
   110   3      33.293475708521818      25.186432451889054      8.1542850149398234
   111   3      42.704259959197628      12.405253036108187      44.681093673527364
   112   3      2.5569309125182245      39.369843329582203      16.361787209968334
   113   3      25.270792001203567      19.659987971672265      15.565681662976559
   114   3    0.080438758730372012      44.613166461932686      2.7109221826325736
   115   3      9.7411335470565135        2.08389730726699      26.800793473576885
   116   3      20.038966536820233      28.909032657755901      51.235717922570466
   117   3      2.6814309388903426      42.296694694044255        18.2717186130022
   118   3      4.7713463083945342      54.475185045279261      10.122768537267088
   119   3      30.578869495552983      7.4942014258913661      30.093643281858984
   120   3      51.838046037196456      14.804065837232297      8.6727608916246304
   121   3      20.526927798902271      52.796717163248843      8.1623212860265006
   122   3      36.472582301540193      50.443729148265056      20.825577341382644
   123   3      38.242015619799034      54.735782571914449      42.399215832638404
   124   3      34.910152510539604      24.908212644263259      16.372703390930354
   125   3      10.935696830138371      50.424124604234997      9.6807097042859578
   126   3      35.640611559603876      35.630357477216123      51.740166980061666
   127   3      52.871720909629985      33.110955871799106      29.189341045894764
   128   3      51.217504809897761      29.327905401168596      32.870743676912134
   129   3      41.702645122355328      19.428843612780767      43.665219631566984
   130   3      55.103174415768898      9.9507922967599409      28.930883907811026
   131   3      14.246276862972167      21.924692817349126      42.982486210890578
   132   3      11.974021164496326      13.728977666372771      24.702721217074359
   133   3      3.6051646786463603      34.629680034945657      22.563165140423397
   134   3      42.255599574004783      46.023219933864318      53.479617084591005
   135   3      24.521961585294473      52.999405522226404      10.944567444825847
   136   3      5.4682444562114982      33.538917570100473      21.234396947755609
   137   3       38.25613443058063      24.888017107531624      3.0599182262516522
   138   3      21.395373735522973      28.696161882395273      12.237763040350597
   139   3      36.011085542305274      52.235752302319334      46.895609659562233
   140   3      3.5361531671891355      29.189551689767576      42.202233029121345
   141   3      17.649379857039307      8.3861524657902411      24.979072905901983
   142   3      28.409624073994244      37.607768875874847       10.73323093151765
   143   3      33.032823632449706       8.752324023033875      48.976076767854813
   144   3      30.661094298550768      22.826275872644185      34.128675240520515
   145   3      44.688820242341457      24.956906605183246      47.950214007268244
   146   3      12.796517662546613      14.343996501673717      27.964740829189559
   147   3      37.765746627889136      1.8450604874781493      54.577931182405912
   148   3      4.8242705580642431      35.404979710419134      33.924504049517431
   149   3      42.010636679562808      12.979495332871023       28.10393726602587
   150   3      36.081795087872869      14.204811387150531      8.1670344373823589
   151   3      8.2560156841862753      12.967463573107537      49.693539479335925
   152   3      4.5016422113387851      19.811435132813525      47.798991032109804
   153   3      44.943076579476134      47.496750297154641      32.935731191309948
   154   3      18.671109814474686     0.61631835755775022      27.557973438146306
   155   3      50.729182743364994      49.171919723216682      15.128496661863732
   156   3      32.814462372904018      27.519471282906299      19.539451409829951
   157   3      14.228157445818237      27.238389911937325      47.666086133210442
   158   3      54.456898585691519      28.306718944379487      4.1004456629736579
   159   3      14.657017961169002      54.326748400823604      34.147673534114723
   160   3      9.9419177865815431      47.927322778684463      9.6018805427042206
   161   3      20.011756214790644      19.649790514272642      28.790256018089455
   162   3      52.268821423042326      46.054775192898873      46.935230678569248
   163   3       17.18936293946566      53.140126191848779      39.185791987185027
   164   3      25.155960787825698      46.080299642872575      36.377343379947376
   165   3      45.802164291700144      8.3005157194675565      28.476766701058814
   166   3      54.703865196658448      39.125372768977549      17.275651389424713
   167   3      12.113058461610574      26.134600614256119      38.126948920505328
   168   3      41.356155981812947      35.285626518824508      19.534683331452353
   169   3      5.0452234976722217      27.667644337459031      49.797191916624733
   170   3      33.229119582623511      17.118853573483388      35.107739220336384
   171   3      3.6496330166959514      7.8796712060350202      41.426685617046488
   172   3      23.137723075852779      9.9251453394401281      7.4717692432040934
   173   3      22.658972388704527      49.134029189880046      7.0537629031345892
   174   3      41.706550232381453      19.639724545029321       24.05547127990663
   175   3      42.104164537174626      14.020835223576707      42.284514136957469
   176   3      24.900753476650181      23.646630905043963      36.724398650646528
   177   3      24.923774037449412      2.2941053963112026      35.609269543265263
   178   3      46.103787361867809      22.179857393568955      7.8654549178087825
   179   3      27.667415522613283      21.846093431649638      11.673697967775921
   180   3      37.669918581469204      49.974598433140898      31.659858176236604
   181   3       18.97709370999355      8.4209903950907261      36.692349086063452
   182   3      7.7871150807260747      32.649798753777695     0.67126219260580677
   183   3      15.730934952690648      28.200427068756756      54.165664760443036
   184   3      23.025387779494071      13.524642575720021      34.795396292548823
   185   3      41.833320398058284      34.628835154325351      45.789543409724864
   186   3      1.9091342587556643      41.240597727034185      46.349563600862083
   187   3      18.387137541770766      36.988908231544869      52.990729913383852
   188   3      14.157282312647768      22.395950823825647      8.5430476396067565
   189   3      33.718892373887186     0.30890493123509738      12.545578035362102
   190   3     0.85512008175015242      7.4437046986218682      9.1493322822990031
   191   3      8.8304314333164626      43.345601026163337      43.222447121111941
   192   3      29.952634963085909      40.676416335214078      52.249035991041886
   193   3      10.972148658159137      47.426081782851092      26.971395543423434
   194   3      10.616977305305065      40.933681894351267      15.970236194028377
   195   3      35.007609970273535      24.447293121443213      42.278629843911389
   196   3      46.150346286263634      6.9552832361681345      39.224530133341744
   197   3      13.654376177685727      50.939440580556841      8.9740460870861565
   198   3      10.471715063538973      35.328809734132228      6.2051115229797684
   199   3      18.423038865852686      15.399471204245065      31.744567431682857
   200   3       32.41818185872048       28.90717811293586      41.752788996369439
   201   3      32.887311792036506      21.664123539702054      53.525775007790138
   202   3      49.187304177490169      15.987784668430237      43.875872024566625
   203   3      48.686461801073023      25.021878788210643      10.898044951700836
   204   3      6.2237135212126375      2.0452169031685217      24.824139500900678
   205   3      52.098504830829626      27.742630020390379       15.40883234593691
   206   3      48.714136030527769      26.618389823099104      51.793435004314759
   207   3      29.912824401447363       26.73126700951757      52.683762678578191
   208   3      15.619069621858637      4.9037798100581957      38.652794787025556
   209   3      11.168708221823385      53.705310962670275      15.887240887953014
   210   3      43.704063776790861     0.10130841993340078      31.454496594503837
   211   3      17.761393513664977       43.10008957823981       18.21069289056781
   212   3      34.574723936920698      41.602467746442493      11.034727061193195
   213   3      31.697294412810056     0.88562070534934811      40.764514275253362
   214   3      30.449394914451958      53.670368369473202      46.356785611015653
   215   3      55.326144028354136      55.369972395594296      26.941889897587121
   216   3      7.5038419147614057       17.14207241906275      48.656996512193381
   217   3      53.600568030883316      52.605050976199756      48.247832967617107
   218   3       1.508533213454426      18.172443260899293       47.11956353761569
   219   3      34.565784359016803      29.232629160224285       20.19169947649964
   220   3      1.4733680714348576      1.8603286861725805      22.630187744459867
   221   3      7.4910757899612799      13.061209947027217      13.231306042207017
   222   3      27.175086148895826      49.526837295818027      14.923001732008528
   223   3      15.798289864210009      26.014335888517433      6.3762370003195574
   224   3      32.809807235729117       29.87718861719468      55.349251407051405
   225   3       15.04044002238115      1.0402412872856002     0.90185209210391748
   226   3      21.231411147934654      29.523409318643068       45.93321533390678
   227   3      34.923784593841276      19.184169994999095      31.900641913198466
   228   3      30.487733940956794      52.212250153521182      6.9437873713885772
   229   3      9.2597832922724574      23.559917546617033      43.284809658984543
   230   3      51.586758809559079      40.668004652341367      23.299311713655943
   231   3      17.530139930159258      47.374734992048914      35.690440202825769
   232   3      50.248644104121034      44.586600627840454      36.524695028127262
   233   3      50.307939691913248      43.530018066880544      39.263744509881477
   234   3       21.23179527820103      51.388375318733196      52.587070013420053
   235   3      18.004941775516585       13.38956010388141       27.10299756041826
   236   3      27.121756206088339      9.4904791618991755     0.68158538128448853
   237   3      8.9223063490708601      29.408041670316432      1.9590050468813356
   238   3      41.112469733739367      50.064286239650038      10.340082153814661
   239   3      0.8872250942153459      29.905822669358258      3.1612337282921015
   240   3      20.951803949446663      1.3101373611633427      35.726474133368406
   241   3      30.034730707806332      12.332995430010845      34.455869276636221
   242   3      6.2700239733516323      12.178455532240214       39.72871870327036
   243   3      52.625940289953753      16.602871257675559      52.893988748040854
   244   3      21.142653930966947       8.913316828748993       50.66640740846757
   245   3      17.529460064846969       34.40050760476511      44.136237741834371
   246   3      51.596363570719852      35.669113214329606      24.022755203383497
   247   3      16.430633201620868     0.23500567511815695      37.128217485105203
   248   3      22.968731134319988      3.1130453336592345      5.5730938912244543
   249   3      25.802880541028482      24.656937705249678      50.677464419436831
   250   3      43.773020803144036      46.764173772575873      9.5219922844672844
   251   3      40.949405936183886      37.083365447402265       45.22912239600894
   252   3      38.036906091644603      1.9590408177767424      29.876852299685098
   253   3      26.951924792343711      3.6604215822850334      36.569125215935649
   254   3      10.003838490987297      27.370271145014659      3.2433252592031616
   255   3      27.899969134319427      8.1112438277939578      2.7917368689721358
   256   3      21.572972574867119      9.9852747271670932      30.400236199627589
   257   3      29.505110858858274      26.923446610631611      48.118273353088199
   258   3      10.741833474963917      28.153868984027859      38.792066423833937
   259   3      3.3148265502111363      7.1411234096691141      1.4914172301274755
   260   3      44.777570247883567       22.38701060747108      52.600357995226801
   261   3      40.629190526427401      42.881188300361437      40.251080866304648
   262   3      48.094061023698387      5.5997848036130957      24.500724243629097
   263   3     0.38235282495914591      28.050032866489584      18.788860910079425
   264   3      14.820451365040423      15.784976973886044      7.9383911058197194
   265   3      39.257619406546361      49.890039442755906      47.332084077229453
   266   3      24.691975322959529      25.875080666138668      53.009441435633036
   267   3      5.5386627481204087      20.793507644951958      43.218112134178625
   268   3      28.421180965589809      10.088508926399413      18.257531282769467
   269   3      44.164735317500558      25.353542731565504      50.630980517984675
   270   3      19.213103534646571      23.433862328883706       34.08895847703532
   271   3      7.8384512425047657      27.331158407051319      9.1925691594040391
   272   3      30.095408621241816      44.300511148202069      6.5995073533481072
   273   3      28.049904694610657      20.399439776600961      17.875544305318492
   274   3      52.242634838183356      53.980454438839075      39.336866800950268
   275   3      39.227031439369462      10.427225091989092       2.727606036668742
   276   3      36.906890296329756      19.927851652216354      42.743807225421698
   277   3      35.108204007478882       34.34143030715078      12.745618262089748
   278   3      17.026792862106621      46.201439534074424      17.249694777725121
   279   3      28.406545872236183      3.5567181746452641      52.507246050416015
   280   3      37.162428257156442      11.535060850519351      9.5446031254324097
   281   3       33.05222577290327      20.848884788993832     0.65849758638649836
   282   3       50.24311946957468      42.582060959047126      44.276444105855767
   283   3       3.378624632013365       32.96012699878959      45.698610899350804
   284   3       40.68884322274149      2.2824710151421144      46.631947831225702
   285   3      6.7073594492998394      1.6147709032185844      39.114923312518997
   286   3      5.5292683391803834      44.844119683852803      43.408844433302804
   287   3       47.69719333198416      6.7358440818100682      42.486844740039089
   288   3      27.617593035226516      48.798736582609017      29.919025000205988
   289   3      54.075304837386795      13.822867370241651      9.6210007461741966
   290   3      45.192847494550435      52.608643161267537      11.797683414519014
   291   3       4.903166022969339      34.791101479926411      17.217880046361362
   292   3      22.456962633567301      48.231487769480431      9.8113833695831065
   293   3      17.349748633397063      21.484399260347605      25.335951801619878
   294   3      37.938491849513497      54.353557292078015      34.544561596809281
   295   3      31.143511822737405      16.266015413116975      12.964172279719696
   296   3      17.259470977161314      26.438973239428407      37.194830072822448
   297   3      36.236907634544174      15.973503317913909      20.381076723839797
   298   3      26.169060073099729       20.36511801768216      39.435863338342671
   299   3      17.739327007039581      46.537109770369973      22.705721133736816
   300   3       34.34292353176162      32.820593175544488      10.739676404342804
   301   3      16.740805022621604      22.179941674952623      50.464598633896209
   302   3      1.0938675724072231      15.820710472034023      35.289171801469685
   303   3      44.781506017619435      21.157854076626794      43.355093569047135
   304   3      50.161126367056191      37.333821113348201      38.887314732850875
   305   3      18.618074196749802      17.665890657052213      49.053881157673594
   306   3      6.2848741114413027      28.787358039533132      30.804209963115767
   307   3      15.269836041796344       11.16190120503053      46.899542985706425
   308   3      32.663920674329404      40.888363802117134      42.075810713212654
   309   3      8.7194512866523031      38.632617049246726      9.4915971513843633
   310   3      5.7166386137692946       31.67908813788123      9.2652644837524658
   311   3      52.448026143621739      1.3288142304188102      15.652453215752038
   312   3      48.960232343836708      6.0819906115852271      45.496882207983454
   313   3      23.727446821848822      37.252213056788094      8.1413268943450721
   314   3      35.055123893282492      7.6757185738972336      40.787301512937638
   315   3      48.675113175839016      55.151524343074691      26.089063680276688
   316   3      18.977392820504676      4.3574413026640242     0.96068025878821006
   317   3      20.633282654751302      11.650910245706468      28.717148163389126
   318   3       46.87222841098923      51.278430828779214      20.746711846296481
   319   3      23.130632580158967      43.181157154235365      19.458206761893674
   320   3      8.6859479430924544      21.216987274986405      8.3119372657659234
   321   3      43.783293026292775      45.417824864336886       18.58510693175992
   322   3      26.759932326406371       39.48358814131926      5.0953409316180647
   323   3      53.725713695390588      15.842442379067505      30.058436779492652
   324   3      17.745185684901724      28.828691545245942      36.367680904840682
   325   3       16.96448124163653      27.341456865402062      43.058391976777479
   326   3       9.630465563939806      21.101123428086051      24.256985069127978
   327   3      26.307606143449746      53.794631713030498      1.3210105984846092
   328   3       21.24667072333099      36.512636949241021      20.200628167529722
   329   3      29.508531614636812      47.093559028495186      50.195921375202694
   330   3      5.5989497333669229      45.966747267367076      17.953966212777278
   331   3      21.618153588006567      32.764112341454783      9.3982377794267773
   332   3      37.682891414468855      46.155801435386209      46.208441339259572
   333   3      3.2541844305023773      13.170163199894281      14.724600310027975
   334   3      15.162344534967698       31.15999825653865      47.386275259466572
   335   3      27.879987376588662      48.785022209804978      12.410484399731255
   336   3      1.7992767239029435      11.303674896746285      28.053747037186628
   337   3      20.022400001842129      26.544915011855565      13.717453295713618
   338   3      12.853736052049697      9.9875806441226764      1.9975040949790472
   339   3      16.391836265415293      8.9438744800463379      7.4518185368444154
   340   3      22.766319322428409       9.638310223137335      2.1633330500138475
   341   3      36.826125761828685      4.7765367320376582      3.2357332096384952
   342   3      22.506601157446529      13.640481012993639      23.079093202981653
   343   3      36.514124863642401      43.846344516739279       5.208658517701509
   344   3      18.864977098856798      26.984214607050543      16.916587096520427
   345   3      11.106950877661447      38.398113605672499      43.740971833178854
   346   3      1.1254154020008724      43.222168022317874      14.360070284217336
   347   1      34.928165951895359       27.59689925709921      37.497441734496206
   348   1       45.71277128279106      1.9118844051288073      32.829791480858312
   349   1       43.79120908000052      20.988772016015769      52.508209200652928
   350   1      50.387465660166683      41.750692325328124      39.183869933382816
   351   1      2.3489936721460638      40.926691678434608      4.0116267897019515
   352   1      38.514772582798628      27.623334012511243      16.209934315509269
   353   1      34.977705067292241      33.183565145209158      4.5478777066585208
   354   1      12.199424898333922      3.4419391345391768      39.423823202020145
   355   1      40.196876859956085      30.624694252714711      32.771924643704828
   356   1      10.444197997738838      43.683747194474094      49.621109876090905
   357   1      41.023451357333748      42.103692862664467      42.704823726262404
   358   1      44.183167102927385      31.510621499976459      7.4096700337930566
   359   1      35.909946920623874      22.908553906812998      50.394846656897499