# LAMMPS data file written by OVITO Basic 3.12.1

1500 atoms
2 atom types

-10.9699634716 16.4549452075 xlo xhi
-10.9699634716 16.4549452075 ylo yhi
-10.9699634716 16.4549452075 zlo zhi

Masses

1 22.98977  # Na
2 15.9994  # O

Atoms  # atomic

1 1 -9.5987180377 -6.8562271698 -6.8562271698
2 1 -6.8562271698 -9.5987180377 -9.5987180377
3 1 -9.5987180377 -9.5987180377 -9.5987180377
4 1 -6.8562271698 -6.8562271698 -6.8562271698
5 1 -6.8562271698 -6.8562271698 -9.5987180377
6 1 -9.5987180377 -9.5987180377 -6.8562271698
7 1 -6.8562271698 -9.5987180377 -6.8562271698
8 1 -9.5987180377 -6.8562271698 -9.5987180377
9 2 -10.9699634716 -10.9699634716 -10.9699634716
10 2 -10.9699634716 -8.2274726037 -8.2274726037
11 2 -8.2274726037 -10.9699634716 -8.2274726037
12 2 -8.2274726037 -8.2274726037 -10.9699634716
13 1 -9.5987180377 -6.8562271698 -1.371245434
14 1 -6.8562271698 -9.5987180377 -4.1137363019
15 1 -9.5987180377 -9.5987180377 -4.1137363019
16 1 -6.8562271698 -6.8562271698 -1.371245434
17 1 -6.8562271698 -6.8562271698 -4.1137363019
18 1 -9.5987180377 -9.5987180377 -1.371245434
19 1 -6.8562271698 -9.5987180377 -1.371245434
20 1 -9.5987180377 -6.8562271698 -4.1137363019
21 2 -10.9699634716 -10.9699634716 -5.4849817358
22 2 -10.9699634716 -8.2274726037 -2.7424908679
23 2 -8.2274726037 -10.9699634716 -2.7424908679
24 2 -8.2274726037 -8.2274726037 -5.4849817358
25 1 -9.5987180377 -6.8562271698 4.1137363019
26 1 -6.8562271698 -9.5987180377 1.371245434
27 1 -9.5987180377 -9.5987180377 1.371245434
28 1 -6.8562271698 -6.8562271698 4.1137363019
29 1 -6.8562271698 -6.8562271698 1.371245434
30 1 -9.5987180377 -9.5987180377 4.1137363019
31 1 -6.8562271698 -9.5987180377 4.1137363019
32 1 -9.5987180377 -6.8562271698 1.371245434
33 2 -10.9699634716 -10.9699634716 -3.5527136788e-15
34 2 -10.9699634716 -8.2274726037 2.7424908679
35 2 -8.2274726037 -10.9699634716 2.7424908679
36 2 -8.2274726037 -8.2274726037 -3.5527136788e-15
37 1 -9.5987180377 -6.8562271698 9.5987180377
38 1 -6.8562271698 -9.5987180377 6.8562271698
39 1 -9.5987180377 -9.5987180377 6.8562271698
40 1 -6.8562271698 -6.8562271698 9.5987180377
41 1 -6.8562271698 -6.8562271698 6.8562271698
42 1 -9.5987180377 -9.5987180377 9.5987180377
43 1 -6.8562271698 -9.5987180377 9.5987180377
44 1 -9.5987180377 -6.8562271698 6.8562271698
45 2 -10.9699634716 -10.9699634716 5.4849817358
46 2 -10.9699634716 -8.2274726037 8.2274726037
47 2 -8.2274726037 -10.9699634716 8.2274726037
48 2 -8.2274726037 -8.2274726037 5.4849817358
49 1 -9.5987180377 -6.8562271698 15.0836997735
50 1 -6.8562271698 -9.5987180377 12.3412089056
51 1 -9.5987180377 -9.5987180377 12.3412089056
52 1 -6.8562271698 -6.8562271698 15.0836997735
53 1 -6.8562271698 -6.8562271698 12.3412089056
54 1 -9.5987180377 -9.5987180377 15.0836997735
55 1 -6.8562271698 -9.5987180377 15.0836997735
56 1 -9.5987180377 -6.8562271698 12.3412089056
57 2 -10.9699634716 -10.9699634716 10.9699634716
58 2 -10.9699634716 -8.2274726037 13.7124543395
59 2 -8.2274726037 -10.9699634716 13.7124543395
60 2 -8.2274726037 -8.2274726037 10.9699634716
61 1 -9.5987180377 -1.371245434 -6.8562271698
62 1 -6.8562271698 -4.1137363019 -9.5987180377
63 1 -9.5987180377 -4.1137363019 -9.5987180377
64 1 -6.8562271698 -1.371245434 -6.8562271698
65 1 -6.8562271698 -1.371245434 -9.5987180377
66 1 -9.5987180377 -4.1137363019 -6.8562271698
67 1 -6.8562271698 -4.1137363019 -6.8562271698
68 1 -9.5987180377 -1.371245434 -9.5987180377
69 2 -10.9699634716 -5.4849817358 -10.9699634716
70 2 -10.9699634716 -2.7424908679 -8.2274726037
71 2 -8.2274726037 -5.4849817358 -8.2274726037
72 2 -8.2274726037 -2.7424908679 -10.9699634716
73 1 -9.5987180377 -1.371245434 -1.371245434
74 1 -6.8562271698 -4.1137363019 -4.1137363019
75 1 -9.5987180377 -4.1137363019 -4.1137363019
76 1 -6.8562271698 -1.371245434 -1.371245434
77 1 -6.8562271698 -1.371245434 -4.1137363019
78 1 -9.5987180377 -4.1137363019 -1.371245434
79 1 -6.8562271698 -4.1137363019 -1.371245434
80 1 -9.5987180377 -1.371245434 -4.1137363019
81 2 -10.9699634716 -5.4849817358 -5.4849817358
82 2 -10.9699634716 -2.7424908679 -2.7424908679
83 2 -8.2274726037 -5.4849817358 -2.7424908679
84 2 -8.2274726037 -2.7424908679 -5.4849817358
85 1 -9.5987180377 -1.371245434 4.1137363019
86 1 -6.8562271698 -4.1137363019 1.371245434
87 1 -9.5987180377 -4.1137363019 1.371245434
88 1 -6.8562271698 -1.371245434 4.1137363019
89 1 -6.8562271698 -1.371245434 1.371245434
90 1 -9.5987180377 -4.1137363019 4.1137363019
91 1 -6.8562271698 -4.1137363019 4.1137363019
92 1 -9.5987180377 -1.371245434 1.371245434
93 2 -10.9699634716 -5.4849817358 -3.5527136788e-15
94 2 -10.9699634716 -2.7424908679 2.7424908679
95 2 -8.2274726037 -5.4849817358 2.7424908679
96 2 -8.2274726037 -2.7424908679 -3.5527136788e-15
97 1 -9.5987180377 -1.371245434 9.5987180377
98 1 -6.8562271698 -4.1137363019 6.8562271698
99 1 -9.5987180377 -4.1137363019 6.8562271698
100 1 -6.8562271698 -1.371245434 9.5987180377
101 1 -6.8562271698 -1.371245434 6.8562271698
102 1 -9.5987180377 -4.1137363019 9.5987180377
103 1 -6.8562271698 -4.1137363019 9.5987180377
104 1 -9.5987180377 -1.371245434 6.8562271698
105 2 -10.9699634716 -5.4849817358 5.4849817358
106 2 -10.9699634716 -2.7424908679 8.2274726037
107 2 -8.2274726037 -5.4849817358 8.2274726037
108 2 -8.2274726037 -2.7424908679 5.4849817358
109 1 -9.5987180377 -1.371245434 15.0836997735
110 1 -6.8562271698 -4.1137363019 12.3412089056
111 1 -9.5987180377 -4.1137363019 12.3412089056
112 1 -6.8562271698 -1.371245434 15.0836997735
113 1 -6.8562271698 -1.371245434 12.3412089056
114 1 -9.5987180377 -4.1137363019 15.0836997735
115 1 -6.8562271698 -4.1137363019 15.0836997735
116 1 -9.5987180377 -1.371245434 12.3412089056
117 2 -10.9699634716 -5.4849817358 10.9699634716
118 2 -10.9699634716 -2.7424908679 13.7124543395
119 2 -8.2274726037 -5.4849817358 13.7124543395
120 2 -8.2274726037 -2.7424908679 10.9699634716
121 1 -9.5987180377 4.1137363019 -6.8562271698
122 1 -6.8562271698 1.371245434 -9.5987180377
123 1 -9.5987180377 1.371245434 -9.5987180377
124 1 -6.8562271698 4.1137363019 -6.8562271698
125 1 -6.8562271698 4.1137363019 -9.5987180377
126 1 -9.5987180377 1.371245434 -6.8562271698
127 1 -6.8562271698 1.371245434 -6.8562271698
128 1 -9.5987180377 4.1137363019 -9.5987180377
129 2 -10.9699634716 -2.3763568394e-15 -10.9699634716
130 2 -10.9699634716 2.7424908679 -8.2274726037
131 2 -8.2274726037 -2.2263568394e-15 -8.2274726037
132 2 -8.2274726037 2.7424908679 -10.9699634716
133 1 -9.5987180377 4.1137363019 -1.371245434
134 1 -6.8562271698 1.371245434 -4.1137363019
135 1 -9.5987180377 1.371245434 -4.1137363019
136 1 -6.8562271698 4.1137363019 -1.371245434
137 1 -6.8562271698 4.1137363019 -4.1137363019
138 1 -9.5987180377 1.371245434 -1.371245434
139 1 -6.8562271698 1.371245434 -1.371245434
140 1 -9.5987180377 4.1137363019 -4.1137363019
141 2 -10.9699634716 -2.0763568394e-15 -5.4849817358
142 2 -10.9699634716 2.7424908679 -2.7424908679
143 2 -8.2274726037 -1.9263568394e-15 -2.7424908679
144 2 -8.2274726037 2.7424908679 -5.4849817358
145 1 -9.5987180377 4.1137363019 4.1137363019
146 1 -6.8562271698 1.371245434 1.371245434
147 1 -9.5987180377 1.371245434 1.371245434
148 1 -6.8562271698 4.1137363019 4.1137363019
149 1 -6.8562271698 4.1137363019 1.371245434
150 1 -9.5987180377 1.371245434 4.1137363019
151 1 -6.8562271698 1.371245434 4.1137363019
152 1 -9.5987180377 4.1137363019 1.371245434
153 2 -10.9699634716 -1.7763568394e-15 -3.5527136788e-15
154 2 -10.9699634716 2.7424908679 2.7424908679
155 2 -8.2274726037 -1.6263568394e-15 2.7424908679
156 2 -8.2274726037 2.7424908679 -3.5527136788e-15
157 1 -9.5987180377 4.1137363019 9.5987180377
158 1 -6.8562271698 1.371245434 6.8562271698
159 1 -9.5987180377 1.371245434 6.8562271698
160 1 -6.8562271698 4.1137363019 9.5987180377
161 1 -6.8562271698 4.1137363019 6.8562271698
162 1 -9.5987180377 1.371245434 9.5987180377
163 1 -6.8562271698 1.371245434 9.5987180377
164 1 -9.5987180377 4.1137363019 6.8562271698
165 2 -10.9699634716 -1.4763568394e-15 5.4849817358
166 2 -10.9699634716 2.7424908679 8.2274726037
167 2 -8.2274726037 -1.3263568394e-15 8.2274726037
168 2 -8.2274726037 2.7424908679 5.4849817358
169 1 -9.5987180377 4.1137363019 15.0836997735
170 1 -6.8562271698 1.371245434 12.3412089056
171 1 -9.5987180377 1.371245434 12.3412089056
172 1 -6.8562271698 4.1137363019 15.0836997735
173 1 -6.8562271698 4.1137363019 12.3412089056
174 1 -9.5987180377 1.371245434 15.0836997735
175 1 -6.8562271698 1.371245434 15.0836997735
176 1 -9.5987180377 4.1137363019 12.3412089056
177 2 -10.9699634716 -1.1763568394e-15 10.9699634716
178 2 -10.9699634716 2.7424908679 13.7124543395
179 2 -8.2274726037 -1.0263568394e-15 13.7124543395
180 2 -8.2274726037 2.7424908679 10.9699634716
181 1 -9.5987180377 9.5987180377 -6.8562271698
182 1 -6.8562271698 6.8562271698 -9.5987180377
183 1 -9.5987180377 6.8562271698 -9.5987180377
184 1 -6.8562271698 9.5987180377 -6.8562271698
185 1 -6.8562271698 9.5987180377 -9.5987180377
186 1 -9.5987180377 6.8562271698 -6.8562271698
187 1 -6.8562271698 6.8562271698 -6.8562271698
188 1 -9.5987180377 9.5987180377 -9.5987180377
189 2 -10.9699634716 5.4849817358 -10.9699634716
190 2 -10.9699634716 8.2274726037 -8.2274726037
191 2 -8.2274726037 5.4849817358 -8.2274726037
192 2 -8.2274726037 8.2274726037 -10.9699634716
193 1 -9.5987180377 9.5987180377 -1.371245434
194 1 -6.8562271698 6.8562271698 -4.1137363019
195 1 -9.5987180377 6.8562271698 -4.1137363019
196 1 -6.8562271698 9.5987180377 -1.371245434
197 1 -6.8562271698 9.5987180377 -4.1137363019
198 1 -9.5987180377 6.8562271698 -1.371245434
199 1 -6.8562271698 6.8562271698 -1.371245434
200 1 -9.5987180377 9.5987180377 -4.1137363019
201 2 -10.9699634716 5.4849817358 -5.4849817358
202 2 -10.9699634716 8.2274726037 -2.7424908679
203 2 -8.2274726037 5.4849817358 -2.7424908679
204 2 -8.2274726037 8.2274726037 -5.4849817358
205 1 -9.5987180377 9.5987180377 4.1137363019
206 1 -6.8562271698 6.8562271698 1.371245434
207 1 -9.5987180377 6.8562271698 1.371245434
208 1 -6.8562271698 9.5987180377 4.1137363019
209 1 -6.8562271698 9.5987180377 1.371245434
210 1 -9.5987180377 6.8562271698 4.1137363019
211 1 -6.8562271698 6.8562271698 4.1137363019
212 1 -9.5987180377 9.5987180377 1.371245434
213 2 -10.9699634716 5.4849817358 -3.5527136788e-15
214 2 -10.9699634716 8.2274726037 2.7424908679
215 2 -8.2274726037 5.4849817358 2.7424908679
216 2 -8.2274726037 8.2274726037 -3.5527136788e-15
217 1 -9.5987180377 9.5987180377 9.5987180377
218 1 -6.8562271698 6.8562271698 6.8562271698
219 1 -9.5987180377 6.8562271698 6.8562271698
220 1 -6.8562271698 9.5987180377 9.5987180377
221 1 -6.8562271698 9.5987180377 6.8562271698
222 1 -9.5987180377 6.8562271698 9.5987180377
223 1 -6.8562271698 6.8562271698 9.5987180377
224 1 -9.5987180377 9.5987180377 6.8562271698
225 2 -10.9699634716 5.4849817358 5.4849817358
226 2 -10.9699634716 8.2274726037 8.2274726037
227 2 -8.2274726037 5.4849817358 8.2274726037
228 2 -8.2274726037 8.2274726037 5.4849817358
229 1 -9.5987180377 9.5987180377 15.0836997735
230 1 -6.8562271698 6.8562271698 12.3412089056
231 1 -9.5987180377 6.8562271698 12.3412089056
232 1 -6.8562271698 9.5987180377 15.0836997735
233 1 -6.8562271698 9.5987180377 12.3412089056
234 1 -9.5987180377 6.8562271698 15.0836997735
235 1 -6.8562271698 6.8562271698 15.0836997735
236 1 -9.5987180377 9.5987180377 12.3412089056
237 2 -10.9699634716 5.4849817358 10.9699634716
238 2 -10.9699634716 8.2274726037 13.7124543395
239 2 -8.2274726037 5.4849817358 13.7124543395
240 2 -8.2274726037 8.2274726037 10.9699634716
241 1 -9.5987180377 15.0836997735 -6.8562271698
242 1 -6.8562271698 12.3412089056 -9.5987180377
243 1 -9.5987180377 12.3412089056 -9.5987180377
244 1 -6.8562271698 15.0836997735 -6.8562271698
245 1 -6.8562271698 15.0836997735 -9.5987180377
246 1 -9.5987180377 12.3412089056 -6.8562271698
247 1 -6.8562271698 12.3412089056 -6.8562271698
248 1 -9.5987180377 15.0836997735 -9.5987180377
249 2 -10.9699634716 10.9699634716 -10.9699634716
250 2 -10.9699634716 13.7124543395 -8.2274726037
251 2 -8.2274726037 10.9699634716 -8.2274726037
252 2 -8.2274726037 13.7124543395 -10.9699634716
253 1 -9.5987180377 15.0836997735 -1.371245434
254 1 -6.8562271698 12.3412089056 -4.1137363019
255 1 -9.5987180377 12.3412089056 -4.1137363019
256 1 -6.8562271698 15.0836997735 -1.371245434
257 1 -6.8562271698 15.0836997735 -4.1137363019
258 1 -9.5987180377 12.3412089056 -1.371245434
259 1 -6.8562271698 12.3412089056 -1.371245434
260 1 -9.5987180377 15.0836997735 -4.1137363019
261 2 -10.9699634716 10.9699634716 -5.4849817358
262 2 -10.9699634716 13.7124543395 -2.7424908679
263 2 -8.2274726037 10.9699634716 -2.7424908679
264 2 -8.2274726037 13.7124543395 -5.4849817358
265 1 -9.5987180377 15.0836997735 4.1137363019
266 1 -6.8562271698 12.3412089056 1.371245434
267 1 -9.5987180377 12.3412089056 1.371245434
268 1 -6.8562271698 15.0836997735 4.1137363019
269 1 -6.8562271698 15.0836997735 1.371245434
270 1 -9.5987180377 12.3412089056 4.1137363019
271 1 -6.8562271698 12.3412089056 4.1137363019
272 1 -9.5987180377 15.0836997735 1.371245434
273 2 -10.9699634716 10.9699634716 -3.5527136788e-15
274 2 -10.9699634716 13.7124543395 2.7424908679
275 2 -8.2274726037 10.9699634716 2.7424908679
276 2 -8.2274726037 13.7124543395 -3.5527136788e-15
277 1 -9.5987180377 15.0836997735 9.5987180377
278 1 -6.8562271698 12.3412089056 6.8562271698
279 1 -9.5987180377 12.3412089056 6.8562271698
280 1 -6.8562271698 15.0836997735 9.5987180377
281 1 -6.8562271698 15.0836997735 6.8562271698
282 1 -9.5987180377 12.3412089056 9.5987180377
283 1 -6.8562271698 12.3412089056 9.5987180377
284 1 -9.5987180377 15.0836997735 6.8562271698
285 2 -10.9699634716 10.9699634716 5.4849817358
286 2 -10.9699634716 13.7124543395 8.2274726037
287 2 -8.2274726037 10.9699634716 8.2274726037
288 2 -8.2274726037 13.7124543395 5.4849817358
289 1 -9.5987180377 15.0836997735 15.0836997735
290 1 -6.8562271698 12.3412089056 12.3412089056
291 1 -9.5987180377 12.3412089056 12.3412089056
292 1 -6.8562271698 15.0836997735 15.0836997735
293 1 -6.8562271698 15.0836997735 12.3412089056
294 1 -9.5987180377 12.3412089056 15.0836997735
295 1 -6.8562271698 12.3412089056 15.0836997735
296 1 -9.5987180377 15.0836997735 12.3412089056
297 2 -10.9699634716 10.9699634716 10.9699634716
298 2 -10.9699634716 13.7124543395 13.7124543395
299 2 -8.2274726037 10.9699634716 13.7124543395
300 2 -8.2274726037 13.7124543395 10.9699634716
301 1 -4.1137363019 -6.8562271698 -6.8562271698
302 1 -1.371245434 -9.5987180377 -9.5987180377
303 1 -4.1137363019 -9.5987180377 -9.5987180377
304 1 -1.371245434 -6.8562271698 -6.8562271698
305 1 -1.371245434 -6.8562271698 -9.5987180377
306 1 -4.1137363019 -9.5987180377 -6.8562271698
307 1 -1.371245434 -9.5987180377 -6.8562271698
308 1 -4.1137363019 -6.8562271698 -9.5987180377
309 2 -5.4849817358 -10.9699634716 -10.9699634716
310 2 -5.4849817358 -8.2274726037 -8.2274726037
311 2 -2.7424908679 -10.9699634716 -8.2274726037
312 2 -2.7424908679 -8.2274726037 -10.9699634716
313 1 -4.1137363019 -6.8562271698 -1.371245434
314 1 -1.371245434 -9.5987180377 -4.1137363019
315 1 -4.1137363019 -9.5987180377 -4.1137363019
316 1 -1.371245434 -6.8562271698 -1.371245434
317 1 -1.371245434 -6.8562271698 -4.1137363019
318 1 -4.1137363019 -9.5987180377 -1.371245434
319 1 -1.371245434 -9.5987180377 -1.371245434
320 1 -4.1137363019 -6.8562271698 -4.1137363019
321 2 -5.4849817358 -10.9699634716 -5.4849817358
322 2 -5.4849817358 -8.2274726037 -2.7424908679
323 2 -2.7424908679 -10.9699634716 -2.7424908679
324 2 -2.7424908679 -8.2274726037 -5.4849817358
325 1 -4.1137363019 -6.8562271698 4.1137363019
326 1 -1.371245434 -9.5987180377 1.371245434
327 1 -4.1137363019 -9.5987180377 1.371245434
328 1 -1.371245434 -6.8562271698 4.1137363019
329 1 -1.371245434 -6.8562271698 1.371245434
330 1 -4.1137363019 -9.5987180377 4.1137363019
331 1 -1.371245434 -9.5987180377 4.1137363019
332 1 -4.1137363019 -6.8562271698 1.371245434
333 2 -5.4849817358 -10.9699634716 -3.5527136788e-15
334 2 -5.4849817358 -8.2274726037 2.7424908679
335 2 -2.7424908679 -10.9699634716 2.7424908679
336 2 -2.7424908679 -8.2274726037 -3.5527136788e-15
337 1 -4.1137363019 -6.8562271698 9.5987180377
338 1 -1.371245434 -9.5987180377 6.8562271698
339 1 -4.1137363019 -9.5987180377 6.8562271698
340 1 -1.371245434 -6.8562271698 9.5987180377
341 1 -1.371245434 -6.8562271698 6.8562271698
342 1 -4.1137363019 -9.5987180377 9.5987180377
343 1 -1.371245434 -9.5987180377 9.5987180377
344 1 -4.1137363019 -6.8562271698 6.8562271698
345 2 -5.4849817358 -10.9699634716 5.4849817358
346 2 -5.4849817358 -8.2274726037 8.2274726037
347 2 -2.7424908679 -10.9699634716 8.2274726037
348 2 -2.7424908679 -8.2274726037 5.4849817358
349 1 -4.1137363019 -6.8562271698 15.0836997735
350 1 -1.371245434 -9.5987180377 12.3412089056
351 1 -4.1137363019 -9.5987180377 12.3412089056
352 1 -1.371245434 -6.8562271698 15.0836997735
353 1 -1.371245434 -6.8562271698 12.3412089056
354 1 -4.1137363019 -9.5987180377 15.0836997735
355 1 -1.371245434 -9.5987180377 15.0836997735
356 1 -4.1137363019 -6.8562271698 12.3412089056
357 2 -5.4849817358 -10.9699634716 10.9699634716
358 2 -5.4849817358 -8.2274726037 13.7124543395
359 2 -2.7424908679 -10.9699634716 13.7124543395
360 2 -2.7424908679 -8.2274726037 10.9699634716
361 1 -4.1137363019 -1.371245434 -6.8562271698
362 1 -1.371245434 -4.1137363019 -9.5987180377
363 1 -4.1137363019 -4.1137363019 -9.5987180377
364 1 -1.371245434 -1.371245434 -6.8562271698
365 1 -1.371245434 -1.371245434 -9.5987180377
366 1 -4.1137363019 -4.1137363019 -6.8562271698
367 1 -1.371245434 -4.1137363019 -6.8562271698
368 1 -4.1137363019 -1.371245434 -9.5987180377
369 2 -5.4849817358 -5.4849817358 -10.9699634716
370 2 -5.4849817358 -2.7424908679 -8.2274726037
371 2 -2.7424908679 -5.4849817358 -8.2274726037
372 2 -2.7424908679 -2.7424908679 -10.9699634716
373 1 -4.1137363019 -1.371245434 -1.371245434
374 1 -1.371245434 -4.1137363019 -4.1137363019
375 1 -4.1137363019 -4.1137363019 -4.1137363019
376 1 -1.371245434 -1.371245434 -1.371245434
377 1 -1.371245434 -1.371245434 -4.1137363019
378 1 -4.1137363019 -4.1137363019 -1.371245434
379 1 -1.371245434 -4.1137363019 -1.371245434
380 1 -4.1137363019 -1.371245434 -4.1137363019
381 2 -5.4849817358 -5.4849817358 -5.4849817358
382 2 -5.4849817358 -2.7424908679 -2.7424908679
383 2 -2.7424908679 -5.4849817358 -2.7424908679
384 2 -2.7424908679 -2.7424908679 -5.4849817358
385 1 -4.1137363019 -1.371245434 4.1137363019
386 1 -1.371245434 -4.1137363019 1.371245434
387 1 -4.1137363019 -4.1137363019 1.371245434
388 1 -1.371245434 -1.371245434 4.1137363019
389 1 -1.371245434 -1.371245434 1.371245434
390 1 -4.1137363019 -4.1137363019 4.1137363019
391 1 -1.371245434 -4.1137363019 4.1137363019
392 1 -4.1137363019 -1.371245434 1.371245434
393 2 -5.4849817358 -5.4849817358 -3.5527136788e-15
394 2 -5.4849817358 -2.7424908679 2.7424908679
395 2 -2.7424908679 -5.4849817358 2.7424908679
396 2 -2.7424908679 -2.7424908679 -3.5527136788e-15
397 1 -4.1137363019 -1.371245434 9.5987180377
398 1 -1.371245434 -4.1137363019 6.8562271698
399 1 -4.1137363019 -4.1137363019 6.8562271698
400 1 -1.371245434 -1.371245434 9.5987180377
401 1 -1.371245434 -1.371245434 6.8562271698
402 1 -4.1137363019 -4.1137363019 9.5987180377
403 1 -1.371245434 -4.1137363019 9.5987180377
404 1 -4.1137363019 -1.371245434 6.8562271698
405 2 -5.4849817358 -5.4849817358 5.4849817358
406 2 -5.4849817358 -2.7424908679 8.2274726037
407 2 -2.7424908679 -5.4849817358 8.2274726037
408 2 -2.7424908679 -2.7424908679 5.4849817358
409 1 -4.1137363019 -1.371245434 15.0836997735
410 1 -1.371245434 -4.1137363019 12.3412089056
411 1 -4.1137363019 -4.1137363019 12.3412089056
412 1 -1.371245434 -1.371245434 15.0836997735
413 1 -1.371245434 -1.371245434 12.3412089056
414 1 -4.1137363019 -4.1137363019 15.0836997735
415 1 -1.371245434 -4.1137363019 15.0836997735
416 1 -4.1137363019 -1.371245434 12.3412089056
417 2 -5.4849817358 -5.4849817358 10.9699634716
418 2 -5.4849817358 -2.7424908679 13.7124543395
419 2 -2.7424908679 -5.4849817358 13.7124543395
420 2 -2.7424908679 -2.7424908679 10.9699634716
421 1 -4.1137363019 4.1137363019 -6.8562271698
422 1 -1.371245434 1.371245434 -9.5987180377
423 1 -4.1137363019 1.371245434 -9.5987180377
424 1 -1.371245434 4.1137363019 -6.8562271698
425 1 -1.371245434 4.1137363019 -9.5987180377
426 1 -4.1137363019 1.371245434 -6.8562271698
427 1 -1.371245434 1.371245434 -6.8562271698
428 1 -4.1137363019 4.1137363019 -9.5987180377
429 2 -5.4849817358 -2.3763568394e-15 -10.9699634716
430 2 -5.4849817358 2.7424908679 -8.2274726037
431 2 -2.7424908679 -2.2263568394e-15 -8.2274726037
432 2 -2.7424908679 2.7424908679 -10.9699634716
433 1 -4.1137363019 4.1137363019 -1.371245434
434 1 -1.371245434 1.371245434 -4.1137363019
435 1 -4.1137363019 1.371245434 -4.1137363019
436 1 -1.371245434 4.1137363019 -1.371245434
437 1 -1.371245434 4.1137363019 -4.1137363019
438 1 -4.1137363019 1.371245434 -1.371245434
439 1 -1.371245434 1.371245434 -1.371245434
440 1 -4.1137363019 4.1137363019 -4.1137363019
441 2 -5.4849817358 -2.0763568394e-15 -5.4849817358
442 2 -5.4849817358 2.7424908679 -2.7424908679
443 2 -2.7424908679 -1.9263568394e-15 -2.7424908679
444 2 -2.7424908679 2.7424908679 -5.4849817358
445 1 -4.1137363019 4.1137363019 4.1137363019
446 1 -1.371245434 1.371245434 1.371245434
447 1 -4.1137363019 1.371245434 1.371245434
448 1 -1.371245434 4.1137363019 4.1137363019
449 1 -1.371245434 4.1137363019 1.371245434
450 1 -4.1137363019 1.371245434 4.1137363019
451 1 -1.371245434 1.371245434 4.1137363019
452 1 -4.1137363019 4.1137363019 1.371245434
453 2 -5.4849817358 -1.7763568394e-15 -3.5527136788e-15
454 2 -5.4849817358 2.7424908679 2.7424908679
455 2 -2.7424908679 -1.6263568394e-15 2.7424908679
456 2 -2.7424908679 2.7424908679 -3.5527136788e-15
457 1 -4.1137363019 4.1137363019 9.5987180377
458 1 -1.371245434 1.371245434 6.8562271698
459 1 -4.1137363019 1.371245434 6.8562271698
460 1 -1.371245434 4.1137363019 9.5987180377
461 1 -1.371245434 4.1137363019 6.8562271698
462 1 -4.1137363019 1.371245434 9.5987180377
463 1 -1.371245434 1.371245434 9.5987180377
464 1 -4.1137363019 4.1137363019 6.8562271698
465 2 -5.4849817358 -1.4763568394e-15 5.4849817358
466 2 -5.4849817358 2.7424908679 8.2274726037
467 2 -2.7424908679 -1.3263568394e-15 8.2274726037
468 2 -2.7424908679 2.7424908679 5.4849817358
469 1 -4.1137363019 4.1137363019 15.0836997735
470 1 -1.371245434 1.371245434 12.3412089056
471 1 -4.1137363019 1.371245434 12.3412089056
472 1 -1.371245434 4.1137363019 15.0836997735
473 1 -1.371245434 4.1137363019 12.3412089056
474 1 -4.1137363019 1.371245434 15.0836997735
475 1 -1.371245434 1.371245434 15.0836997735
476 1 -4.1137363019 4.1137363019 12.3412089056
477 2 -5.4849817358 -1.1763568394e-15 10.9699634716
478 2 -5.4849817358 2.7424908679 13.7124543395
479 2 -2.7424908679 -1.0263568394e-15 13.7124543395
480 2 -2.7424908679 2.7424908679 10.9699634716
481 1 -4.1137363019 9.5987180377 -6.8562271698
482 1 -1.371245434 6.8562271698 -9.5987180377
483 1 -4.1137363019 6.8562271698 -9.5987180377
484 1 -1.371245434 9.5987180377 -6.8562271698
485 1 -1.371245434 9.5987180377 -9.5987180377
486 1 -4.1137363019 6.8562271698 -6.8562271698
487 1 -1.371245434 6.8562271698 -6.8562271698
488 1 -4.1137363019 9.5987180377 -9.5987180377
489 2 -5.4849817358 5.4849817358 -10.9699634716
490 2 -5.4849817358 8.2274726037 -8.2274726037
491 2 -2.7424908679 5.4849817358 -8.2274726037
492 2 -2.7424908679 8.2274726037 -10.9699634716
493 1 -4.1137363019 9.5987180377 -1.371245434
494 1 -1.371245434 6.8562271698 -4.1137363019
495 1 -4.1137363019 6.8562271698 -4.1137363019
496 1 -1.371245434 9.5987180377 -1.371245434
497 1 -1.371245434 9.5987180377 -4.1137363019
498 1 -4.1137363019 6.8562271698 -1.371245434
499 1 -1.371245434 6.8562271698 -1.371245434
500 1 -4.1137363019 9.5987180377 -4.1137363019
501 2 -5.4849817358 5.4849817358 -5.4849817358
502 2 -5.4849817358 8.2274726037 -2.7424908679
503 2 -2.7424908679 5.4849817358 -2.7424908679
504 2 -2.7424908679 8.2274726037 -5.4849817358
505 1 -4.1137363019 9.5987180377 4.1137363019
506 1 -1.371245434 6.8562271698 1.371245434
507 1 -4.1137363019 6.8562271698 1.371245434
508 1 -1.371245434 9.5987180377 4.1137363019
509 1 -1.371245434 9.5987180377 1.371245434
510 1 -4.1137363019 6.8562271698 4.1137363019
511 1 -1.371245434 6.8562271698 4.1137363019
512 1 -4.1137363019 9.5987180377 1.371245434
513 2 -5.4849817358 5.4849817358 -3.5527136788e-15
514 2 -5.4849817358 8.2274726037 2.7424908679
515 2 -2.7424908679 5.4849817358 2.7424908679
516 2 -2.7424908679 8.2274726037 -3.5527136788e-15
517 1 -4.1137363019 9.5987180377 9.5987180377
518 1 -1.371245434 6.8562271698 6.8562271698
519 1 -4.1137363019 6.8562271698 6.8562271698
520 1 -1.371245434 9.5987180377 9.5987180377
521 1 -1.371245434 9.5987180377 6.8562271698
522 1 -4.1137363019 6.8562271698 9.5987180377
523 1 -1.371245434 6.8562271698 9.5987180377
524 1 -4.1137363019 9.5987180377 6.8562271698
525 2 -5.4849817358 5.4849817358 5.4849817358
526 2 -5.4849817358 8.2274726037 8.2274726037
527 2 -2.7424908679 5.4849817358 8.2274726037
528 2 -2.7424908679 8.2274726037 5.4849817358
529 1 -4.1137363019 9.5987180377 15.0836997735
530 1 -1.371245434 6.8562271698 12.3412089056
531 1 -4.1137363019 6.8562271698 12.3412089056
532 1 -1.371245434 9.5987180377 15.0836997735
533 1 -1.371245434 9.5987180377 12.3412089056
534 1 -4.1137363019 6.8562271698 15.0836997735
535 1 -1.371245434 6.8562271698 15.0836997735
536 1 -4.1137363019 9.5987180377 12.3412089056
537 2 -5.4849817358 5.4849817358 10.9699634716
538 2 -5.4849817358 8.2274726037 13.7124543395
539 2 -2.7424908679 5.4849817358 13.7124543395
540 2 -2.7424908679 8.2274726037 10.9699634716
541 1 -4.1137363019 15.0836997735 -6.8562271698
542 1 -1.371245434 12.3412089056 -9.5987180377
543 1 -4.1137363019 12.3412089056 -9.5987180377
544 1 -1.371245434 15.0836997735 -6.8562271698
545 1 -1.371245434 15.0836997735 -9.5987180377
546 1 -4.1137363019 12.3412089056 -6.8562271698
547 1 -1.371245434 12.3412089056 -6.8562271698
548 1 -4.1137363019 15.0836997735 -9.5987180377
549 2 -5.4849817358 10.9699634716 -10.9699634716
550 2 -5.4849817358 13.7124543395 -8.2274726037
551 2 -2.7424908679 10.9699634716 -8.2274726037
552 2 -2.7424908679 13.7124543395 -10.9699634716
553 1 -4.1137363019 15.0836997735 -1.371245434
554 1 -1.371245434 12.3412089056 -4.1137363019
555 1 -4.1137363019 12.3412089056 -4.1137363019
556 1 -1.371245434 15.0836997735 -1.371245434
557 1 -1.371245434 15.0836997735 -4.1137363019
558 1 -4.1137363019 12.3412089056 -1.371245434
559 1 -1.371245434 12.3412089056 -1.371245434
560 1 -4.1137363019 15.0836997735 -4.1137363019
561 2 -5.4849817358 10.9699634716 -5.4849817358
562 2 -5.4849817358 13.7124543395 -2.7424908679
563 2 -2.7424908679 10.9699634716 -2.7424908679
564 2 -2.7424908679 13.7124543395 -5.4849817358
565 1 -4.1137363019 15.0836997735 4.1137363019
566 1 -1.371245434 12.3412089056 1.371245434
567 1 -4.1137363019 12.3412089056 1.371245434
568 1 -1.371245434 15.0836997735 4.1137363019
569 1 -1.371245434 15.0836997735 1.371245434
570 1 -4.1137363019 12.3412089056 4.1137363019
571 1 -1.371245434 12.3412089056 4.1137363019
572 1 -4.1137363019 15.0836997735 1.371245434
573 2 -5.4849817358 10.9699634716 -3.5527136788e-15
574 2 -5.4849817358 13.7124543395 2.7424908679
575 2 -2.7424908679 10.9699634716 2.7424908679
576 2 -2.7424908679 13.7124543395 -3.5527136788e-15
577 1 -4.1137363019 15.0836997735 9.5987180377
578 1 -1.371245434 12.3412089056 6.8562271698
579 1 -4.1137363019 12.3412089056 6.8562271698
580 1 -1.371245434 15.0836997735 9.5987180377
581 1 -1.371245434 15.0836997735 6.8562271698
582 1 -4.1137363019 12.3412089056 9.5987180377
583 1 -1.371245434 12.3412089056 9.5987180377
584 1 -4.1137363019 15.0836997735 6.8562271698
585 2 -5.4849817358 10.9699634716 5.4849817358
586 2 -5.4849817358 13.7124543395 8.2274726037
587 2 -2.7424908679 10.9699634716 8.2274726037
588 2 -2.7424908679 13.7124543395 5.4849817358
589 1 -4.1137363019 15.0836997735 15.0836997735
590 1 -1.371245434 12.3412089056 12.3412089056
591 1 -4.1137363019 12.3412089056 12.3412089056
592 1 -1.371245434 15.0836997735 15.0836997735
593 1 -1.371245434 15.0836997735 12.3412089056
594 1 -4.1137363019 12.3412089056 15.0836997735
595 1 -1.371245434 12.3412089056 15.0836997735
596 1 -4.1137363019 15.0836997735 12.3412089056
597 2 -5.4849817358 10.9699634716 10.9699634716
598 2 -5.4849817358 13.7124543395 13.7124543395
599 2 -2.7424908679 10.9699634716 13.7124543395
600 2 -2.7424908679 13.7124543395 10.9699634716
601 1 1.371245434 -6.8562271698 -6.8562271698
602 1 4.1137363019 -9.5987180377 -9.5987180377
603 1 1.371245434 -9.5987180377 -9.5987180377
604 1 4.1137363019 -6.8562271698 -6.8562271698
605 1 4.1137363019 -6.8562271698 -9.5987180377
606 1 1.371245434 -9.5987180377 -6.8562271698
607 1 4.1137363019 -9.5987180377 -6.8562271698
608 1 1.371245434 -6.8562271698 -9.5987180377
609 2 -1.7763568394e-15 -10.9699634716 -10.9699634716
610 2 -1.7763568394e-15 -8.2274726037 -8.2274726037
611 2 2.7424908679 -10.9699634716 -8.2274726037
612 2 2.7424908679 -8.2274726037 -10.9699634716
613 1 1.371245434 -6.8562271698 -1.371245434
614 1 4.1137363019 -9.5987180377 -4.1137363019
615 1 1.371245434 -9.5987180377 -4.1137363019
616 1 4.1137363019 -6.8562271698 -1.371245434
617 1 4.1137363019 -6.8562271698 -4.1137363019
618 1 1.371245434 -9.5987180377 -1.371245434
619 1 4.1137363019 -9.5987180377 -1.371245434
620 1 1.371245434 -6.8562271698 -4.1137363019
621 2 -1.4763568394e-15 -10.9699634716 -5.4849817358
622 2 -1.4763568394e-15 -8.2274726037 -2.7424908679
623 2 2.7424908679 -10.9699634716 -2.7424908679
624 2 2.7424908679 -8.2274726037 -5.4849817358
625 1 1.371245434 -6.8562271698 4.1137363019
626 1 4.1137363019 -9.5987180377 1.371245434
627 1 1.371245434 -9.5987180377 1.371245434
628 1 4.1137363019 -6.8562271698 4.1137363019
629 1 4.1137363019 -6.8562271698 1.371245434
630 1 1.371245434 -9.5987180377 4.1137363019
631 1 4.1137363019 -9.5987180377 4.1137363019
632 1 1.371245434 -6.8562271698 1.371245434