10020
Lattice="52.7138418082 0.0 0.0 0.0 52.7138418082 0.0 0.0 0.0 52.7138418082" Properties=species:S:1:pos:R:3:lammps_type:I:1:type:I:1 timestep=0 pbc="T T T"
O       46.24940000      39.22140000       8.02504000        1        8
O       52.85180000       8.26211000      17.72540000        1        8
O       42.25720000      12.34780000      20.51600000        1        8
O       44.64530000      48.15460000      30.61470000        1        8
O        4.78420000      28.19220000      32.87600000        1        8
O       22.30230000      40.30940000      41.64270000        1        8
O       20.86640000      33.97790000      21.29140000        1        8
O       41.40530000       2.39308000      44.66380000        1        8
O       24.60470000      24.15110000      50.05230000        1        8
O        6.75871000      44.30910000      18.81240000        1        8
O       47.28320000      36.58760000       1.69850000        1        8
O       42.67570000      36.92420000      24.49020000        1        8
O       22.86740000       5.48439000      22.43840000        1        8
O       11.25300000      16.17550000      21.20670000        1        8
O       50.94000000      18.65030000      18.49690000        1        8
O       16.65900000      16.47530000      22.01750000        1        8
O        3.19106000      25.56130000      25.85020000        1        8
O       34.10170000      51.07340000      40.85550000        1        8
O        6.61316000       5.23084000      18.39690000        1        8
O       27.24390000      51.43620000      15.04790000        1        8
O       40.10630000      45.34730000      38.78150000        1        8
O        8.30111000      26.79440000       2.85917000        1        8
O       20.36480000      43.45280000      44.46140000        1        8
O       35.34380000      10.01390000      33.58030000        1        8
O       18.48580000      16.11900000      34.82230000        1        8
O       35.89860000      18.58970000       0.57800500        1        8
O       19.57590000      45.84050000      43.53760000        1        8
O       14.71420000      24.11960000       3.60315000        1        8
O       38.12640000      31.09940000      40.93900000        1        8
O       20.61480000      26.76240000      31.35240000        1        8
O       28.18110000      30.42530000      45.54000000        1        8
O       40.67410000      24.59480000      24.91510000        1        8
O       17.54320000      15.36370000      32.55400000        1        8
O       14.02080000       7.55150000      23.70300000        1        8
O        2.10234000      42.45060000      24.40560000        1        8
O       15.30670000      11.04090000      28.64480000        1        8
O       37.90840000      44.56340000      43.36260000        1        8
O       39.63800000      42.70130000      48.23400000        1        8
O       42.72630000      36.43620000      50.87690000        1        8
O       44.49150000       2.94355000      47.81160000        1        8
O        2.67496000      27.94800000      35.70560000        1        8
O        9.67612000      33.74410000      51.67000000        1        8
O       30.04110000      49.38590000       0.36083800        1        8
O        5.72480000      24.94300000      30.41160000        1        8
O       46.53770000      29.24720000      30.89740000        1        8
O       24.37690000       2.27877000      19.11940000        1        8
O       46.90070000      18.05430000      15.96700000        1        8
O       11.30970000      21.90210000      46.90930000        1        8
O       44.03560000      13.54500000      24.25280000        1        8
O       14.63070000      44.64430000      48.52410000        1        8
O       46.44930000       3.88974000      17.64830000        1        8
O       15.43570000      45.21880000      30.90310000        1        8
O       34.19960000       1.92463000       4.69561000        1        8
O       34.69760000      52.56600000      21.79990000        1        8
O       32.17030000      39.96240000      52.34860000        1        8
O       23.99360000      15.08140000      50.93060000        1        8
O       48.77680000       7.72545000      42.02990000        1        8
O       51.19110000      32.72440000      26.80360000        1        8
O       11.35240000      48.27670000      33.93960000        1        8
O       37.42420000      27.55790000      12.52020000        1        8
O       48.29550000      17.39760000      46.98310000        1        8
O       34.42660000       1.35518000      19.79410000        1        8
O       12.77550000       9.47557000      24.80510000        1        8
O       34.03180000      43.33350000      46.44000000        1        8
O       21.88010000      23.06470000      43.98450000        1        8
O       12.49700000      41.25510000      19.50720000        1        8
O       41.66280000      31.21370000      27.49410000        1        8
O       39.77650000      10.92080000      13.65990000        1        8
O       28.75530000      15.27660000      33.41340000        1        8
O        4.38948000      30.73930000      33.21040000        1        8
O        4.11679000      35.71800000      47.43710000        1        8
O       39.45570000      43.95670000      36.53740000        1        8
O        2.92812000      41.71290000      43.05300000        1        8
O        8.81024000       0.61345600      18.97630000        1        8
O       28.72940000      15.91660000      11.01350000        1        8
O       19.53680000      42.30460000      38.94860000        1        8
O       42.82190000       0.97333900      24.65500000        1        8
O       36.20210000      10.96040000      24.29870000        1        8
O       22.03300000       4.43767000      30.21960000        1        8
O       33.99210000       4.34578000      18.87810000        1        8
O       32.62100000      45.00950000       8.69658000        1        8
O        0.62672800      32.88050000      14.89760000        1        8
O       43.41760000      37.35790000      21.94730000        1        8
O       16.38220000      28.43110000       7.60922000        1        8
O       40.16130000      19.98970000      36.14360000        1        8
O        0.35931700      14.76810000      11.16220000        1        8
O       47.53300000       0.78367300      36.46650000        1        8
O       13.28140000       3.49783000      42.73110000        1        8
O       20.94970000       4.10080000      25.45080000        1        8
O        7.49292000      23.66310000      12.68880000        1        8
O       31.17290000      51.16550000      14.50650000        1        8
O       41.19230000      46.85400000      15.73580000        1        8
O       14.90390000      48.45350000      15.82760000        1        8
O       20.67380000      51.86630000      25.35240000        1        8
O       34.53530000       3.58326000      36.17280000        1        8
O       15.34170000       6.37795000       7.77182000        1        8
O       20.10400000       2.46467000      44.31000000        1        8
O       13.94920000       8.90358000      51.16110000        1        8
O       46.37420000       1.90121000      34.34410000        1        8
O        2.67292000      18.22280000      51.30940000        1        8
O       13.41190000       7.26643000      20.47810000        1        8
O       50.71070000      39.76820000      11.82290000        1        8
O       12.14150000      37.67800000      22.30560000        1        8
O       51.84090000       8.13568000       9.15221000        1        8
O       20.69280000       7.02700000      34.83740000        1        8
O       23.17870000      48.67480000      22.16730000        1        8
O       51.28260000       6.96624000      24.83940000        1        8
O       19.99460000      18.76150000      39.03180000        1        8
O        9.62897000      44.05500000      49.90840000        1        8
O       31.23580000      30.57090000      19.10760000        1        8
O       19.00540000       1.17322000      42.34430000        1        8
O       44.14820000      17.91410000       4.75097000        1        8
O       34.18080000      29.32000000      20.85900000        1        8
O       40.30160000      23.05650000      32.36790000        1        8
O       26.29690000      35.24100000      10.16360000        1        8
O       44.42310000      50.67300000      35.75030000        1        8
O       27.17780000      12.20490000      52.70940000        1        8
O       46.64780000      17.95920000      29.46990000        1        8
O       20.46670000       6.79842000      43.15340000        1        8
O       39.22930000      51.62020000      47.10430000        1        8
O       46.86220000      37.35100000      13.62260000        1        8
O       50.76570000      20.63880000      12.78490000        1        8
O       38.72190000      40.75980000      40.48560000        1        8
O       16.44650000      18.19590000      48.35950000        1        8
O        9.84724000      38.22890000       1.51973000        1        8
O       12.23040000      20.42560000       3.55877000        1        8
O       30.35840000      33.95960000      37.74840000        1        8
O       10.95430000      41.99600000      16.01760000        1        8
O       21.12110000      49.25990000      50.71650000        1        8
O       16.97760000      33.18720000      46.17630000        1        8
O       23.75170000      29.69560000      51.48490000        1        8
O       50.58220000      13.73030000      38.53910000        1        8
O       38.84330000      11.69900000      51.05890000        1        8
O       15.45150000      37.85340000       5.75293000        1        8
O       52.78500000      31.40300000       9.95532000        1        8
O       10.05360000      26.10330000       6.99833000        1        8
O       17.81470000      32.54660000      13.91000000        1        8
O       49.50190000      25.33240000      52.17040000        1        8
O       19.78040000      45.53050000       5.62324000        1        8
O       45.07730000       6.66355000      30.75750000        1        8
O        3.69758000       5.81761000      16.55080000        1        8
O        4.66100000      47.09300000      40.46310000        1        8
O       26.34980000      47.82380000      23.57020000        1        8
O       34.74820000      46.56470000      30.11310000        1        8
O       43.61230000      31.63150000      16.75940000        1        8
O       27.12800000      25.50800000       2.94408000        1        8
O       24.10240000      27.16320000       4.15073000        1        8
O       22.99050000      24.67480000      36.28370000        1        8
O       17.10000000      10.58850000       7.20604000        1        8
O       18.51060000      27.60740000      50.59600000        1        8
O        7.87202000      24.22050000      31.79840000        1        8
O       27.15950000      50.28670000      46.46570000        1        8
O        8.74407000      37.30780000      30.36590000        1        8
O       48.04020000      44.52490000      37.14380000        1        8
O       47.27070000      27.20230000       3.95823000        1        8
O       33.01770000      35.53060000      42.66490000        1        8
O       23.35340000      29.37400000      41.75410000        1        8
O       42.09710000       8.00458000       5.18058000        1        8
O        1.91863000      24.38980000      31.28210000        1        8
O       17.06180000       9.63597000      34.20740000        1        8
O       25.61480000      40.13520000      13.93260000        1        8
O       46.41460000      36.24780000      38.67650000        1        8
O        4.06845000      40.33740000      35.29240000        1        8
O        3.08765000      47.65360000      35.92300000        1        8
O       31.47950000      10.51900000      50.95220000        1        8
O        2.14712000      20.03250000      31.70130000        1        8
O       47.84100000      22.77160000      15.53990000        1        8
O       17.69150000      46.43870000      30.48460000        1        8
O       33.30480000      12.28500000      19.01140000        1        8
O       40.77810000      49.94670000       2.03295000        1        8
O       50.45970000      50.51810000      35.34210000        1        8
O       11.86740000      11.03660000      16.82890000        1        8
O       43.60560000      37.13430000      19.19330000        1        8
O        1.62497000      29.64530000      11.33080000        1        8
O       11.84690000      21.24450000      14.48280000        1        8
O       30.70280000      12.88540000      46.28060000        1        8
O       40.72710000      13.09230000      38.62480000        1        8
O       17.85070000      34.73060000      41.94250000        1        8
O        1.18405000      49.78840000      32.13670000        1        8
O       38.00150000      42.61170000       0.93663500        1        8
O       39.58320000      27.77930000      43.21440000        1        8
O       24.70120000      51.19290000      32.91740000        1        8
O        5.87684000      37.25660000      23.61670000        1        8
O        8.71767000      37.80920000      35.09300000        1        8
O       48.19290000      34.90140000      46.51660000        1        8
O       40.85370000      34.62020000      51.47820000        1        8
O       33.98220000      25.10570000      34.31720000        1        8
O       18.03190000      35.90370000       5.26160000        1        8
O       10.00430000      32.79850000       3.86339000        1        8
O       52.90480000      30.41700000      18.88820000        1        8
O        4.44346000      41.36200000      30.71850000        1        8
O       12.30140000      51.78200000      32.68490000        1        8
O       35.76990000      30.00430000      40.85920000        1        8
O        9.33784000      38.11100000      49.28820000        1        8
O       36.73500000      38.94800000      52.12050000        1        8
O       19.98070000      10.28750000      52.91360000        1        8
O       28.31780000      38.42930000      49.57840000        1        8
O       26.54430000      41.45470000      30.54140000        1        8
O        6.67342000      24.95860000      28.11260000        1        8
O        6.06990000      29.37420000      47.30240000        1        8
O       49.44340000       3.80081000      30.58960000        1        8
O       12.58610000      52.30060000      30.03710000        1        8
O       28.05070000      28.41570000      15.95290000        1        8
O       29.13200000      24.82260000       8.67626000        1        8
O       18.19810000      30.96820000      24.50580000        1        8
O       45.57740000      36.06350000      31.02150000        1        8
O       16.74120000      43.44310000      49.45920000        1        8
O       43.02640000      24.66320000      28.79790000        1        8
O       39.37760000      26.12210000      49.74780000        1        8
O       22.36100000      33.69450000       8.28717000        1        8
O       19.05250000       9.41506000      32.39800000        1        8
O       47.01870000       7.12065000       8.93701000        1        8
O       47.00260000      42.12970000      36.99390000        1        8
O       17.40670000      41.24000000      44.71120000        1        8
O       23.72210000      22.79780000      34.60120000        1        8
O       10.60660000       1.97429000      14.55670000        1        8
O        3.55701000      23.52160000      21.41180000        1        8
O       42.27210000      20.62000000      28.73830000        1        8
O       42.32530000       5.72811000      12.11520000        1        8
O       42.24010000      33.79540000      39.96510000        1        8
O       52.63670000       8.61800000       2.81535000        1        8
O       18.02210000      18.33950000      32.82840000        1        8
O       46.74860000      12.09840000      41.18170000        1        8
O       52.50510000      20.18630000      19.74140000        1        8
O       50.34180000      34.87670000      41.72880000        1        8
O       10.98190000      36.30440000      10.87230000        1        8
O       34.74120000      32.28190000      13.08130000        1        8
O       12.81210000      18.08660000      27.34030000        1        8
O       24.13810000      35.07730000      30.01720000        1        8
O       38.82260000       5.97708000      35.26910000        1        8
O        0.60857400      29.10460000      23.60670000        1        8
O       15.60570000      28.13010000      34.71230000        1        8
O       40.97850000      39.60210000      36.08260000        1        8
O       18.23510000      34.15970000      51.38860000        1        8
O        1.66966000      35.44650000      38.63600000        1        8
O       39.04420000      51.90300000       2.83527000        1        8
O       11.10260000      12.94920000      50.86900000        1        8
O       35.20140000      30.92450000      19.03860000        1        8
O       18.99140000      32.10390000      45.01020000        1        8
O       31.57040000      28.67930000      45.33900000        1        8
O       27.80460000      47.24930000      27.66780000        1        8
O       24.54340000      34.09230000      19.18770000        1        8
O       48.25400000      28.51630000       1.91623000        1        8
O        8.37171000      13.17720000      39.78620000        1        8
O       44.59490000      18.05950000      14.85670000        1        8
O       37.91560000      41.00660000      32.36690000        1        8
O       32.24050000      15.29110000       7.73369000        1        8
O        1.69020000      28.81110000       3.08192000        1        8
O       40.27510000      15.15250000      12.50790000        1        8
O        8.12961000      47.13650000      24.69010000        1        8
O       37.28640000      28.14810000      41.79560000        1        8
O       26.74410000      37.63070000      38.94100000        1        8
O       10.87510000      52.97300000       7.77037000        1        8
O       34.37610000       9.38714000      47.73020000        1        8
O       44.60230000      36.47270000      14.29350000        1        8
O       16.22290000       5.12808000      35.92480000        1        8
O       44.62280000      13.04630000      49.44050000        1        8
O       30.52340000      30.95070000      28.76700000        1        8
O        2.35313000      43.76100000       2.17254000        1        8
O       30.24690000       9.96337000      19.36830000        1        8
O        7.52119000      18.47270000      22.16900000        1        8
O       42.81910000      47.00290000      26.64220000        1        8
O        7.18592000      13.15830000      13.29810000        1        8
O       40.02210000      31.47210000       8.23707000        1        8
O        1.02627000      27.52340000      14.11820000        1        8
O       30.53160000       3.88795000      23.99430000        1        8
O       42.20480000      31.68990000      51.24490000        1        8
O       46.84310000      14.58990000      45.41250000        1        8
O       25.56130000      26.74470000      22.43810000        1        8
O        8.08982000      48.61230000      21.00890000        1        8
O       19.69760000      39.00400000      39.79900000        1        8
O       26.10330000      50.95930000       4.41636000        1        8
O       46.50210000      28.04570000      33.35640000        1        8
O       19.37840000      29.70850000      49.01040000        1        8
O       31.42940000       3.81043000      45.10140000        1        8
O       26.65390000      27.76380000      36.72300000        1        8
O       32.51740000      39.13510000      16.43730000        1        8
O        3.59490000      47.37760000      50.34030000        1        8
O        8.11902000      12.93820000      31.69570000        1        8
O       34.76840000      37.54590000      48.85770000        1        8
O       13.82780000      22.35750000      28.18460000        1        8
O        8.23588000      36.27240000      23.77280000        1        8
O        6.41517000      31.39970000      34.65310000        1        8
O       14.32970000      51.48780000      49.20100000        1        8
O       30.38090000      48.66030000      43.14230000        1        8
O       36.68240000      13.15870000      37.28250000        1        8
O       16.26050000      28.88750000      40.02120000        1        8
O       25.89580000       7.60043000      20.25000000        1        8
O       11.14630000      38.10980000      42.72730000        1        8
O       23.87700000       6.06732000      31.32590000        1        8
O       50.80300000      15.43800000      36.43360000        1        8
O       45.15260000       6.25627000      25.87510000        1        8
O       21.48540000      11.59530000      27.34680000        1        8
O       34.85130000      52.11840000      18.01900000        1        8
O       35.48020000      44.41480000      44.43900000        1        8
O        1.80711000       5.94122000      19.71270000        1        8
O       31.89770000      13.18890000      22.37720000        1        8
O       47.63140000      50.81280000      31.80460000        1        8
O        6.80230000       7.77491000      29.18640000        1        8
O       52.12800000       4.49624000      24.60550000        1        8
O       10.01980000      36.29150000      25.82500000        1        8
O       44.48730000      41.08810000       7.22733000        1        8
O       51.40190000      16.56650000      21.72210000        1        8
O       26.35020000       8.46795000      15.61040000        1        8
O       50.20670000       6.06595000       9.76112000        1        8
O       20.26240000      37.56270000      30.02030000        1        8
O       42.08350000      35.85010000      27.00780000        1        8
O       11.23910000      26.75520000      34.63940000        1        8
O        1.56498000       1.29619000      27.80920000        1        8
O       38.28300000      23.58010000      25.29050000        1        8
O       47.84890000       7.54055000      33.29900000        1        8
O       38.60160000      21.79140000      30.73810000        1        8
O       36.16260000       9.96498000      21.85580000        1        8
O        1.91314000       2.55394000       7.28528000        1        8
O        6.80052000      31.16790000      39.83660000        1        8
O       39.06200000      37.26580000      41.66510000        1        8
O       34.50660000       9.55640000      45.07260000        1        8
O       38.75330000       5.78394000      42.71600000        1        8
O       52.80500000      38.41810000      41.77570000        1        8
O       42.41750000      29.68540000      38.78200000        1        8
O       46.98040000       2.40581000       7.80529000        1        8
O       24.30330000      21.10320000      32.67230000        1        8
O       21.31170000       4.75571000       7.88307000        1        8
O       45.80670000      13.24890000      39.06050000        1        8
O       42.78230000      37.41760000       7.89432000        1        8
O       50.55020000      42.82070000      29.94800000        1        8
O        6.22724000      30.68640000      11.54490000        1        8
O       23.24850000      24.69810000      10.01560000        1        8
O       16.26100000      36.56280000       3.70416000        1        8
O       28.25550000      12.48270000      37.85960000        1        8
O       34.74950000      14.68510000       6.77066000        1        8
O       24.15820000      37.13580000      23.59060000        1        8
O       12.00710000      43.64210000      42.43290000        1        8
O       32.32570000      44.12080000      21.72840000        1        8
O       51.09100000      38.15860000      52.54460000        1        8
O       16.38740000      20.47220000      51.09770000        1        8
O       40.75590000      51.28560000      27.76070000        1        8
O        0.33304700      48.05680000      33.74630000        1        8
O       30.03540000      47.29910000      26.22540000        1        8
O       26.76350000      45.63560000       3.68984000        1        8
O       35.84590000       5.04641000      13.67460000        1        8
O       13.39760000      34.63510000      19.67020000        1        8
O       23.59760000       4.22391000       3.25567000        1        8
O        7.86802000      38.82220000      19.39400000        1        8
O       18.76300000       6.95905000      31.74680000        1        8
O        2.25380000      25.82160000      43.54960000        1        8
O       16.72600000       8.01310000       6.16603000        1        8
O        0.56285000      22.99830000      32.99240000        1        8
O       22.21090000       9.10536000      34.12340000        1        8
O       44.47030000      44.74280000      45.65320000        1        8
O       40.52590000      43.23010000      13.63880000        1        8
O        9.71739000      42.40320000      52.00030000        1        8
O        5.42566000      13.26930000      33.39090000        1        8
O        5.82023000      46.12710000      24.30250000        1        8
O       46.00660000      46.59690000      18.07430000        1        8
O       18.32680000      37.42090000      35.31400000        1        8
O       50.42700000      41.00590000      49.10670000        1        8
O       16.25970000      42.32200000      15.41160000        1        8
O       31.31140000      43.68890000      52.38140000        1        8
O       22.15270000      27.71670000      29.50840000        1        8
O        2.16729000       0.69821500      25.31520000        1        8
O       46.42300000      41.59120000       8.98241000        1        8
O       25.84110000      47.82150000      40.21090000        1        8
O        1.68526000      34.99930000      19.87560000        1        8
O       38.86080000      48.01560000      50.56410000        1        8
O       16.28370000      26.26130000      22.86310000        1        8
O       39.09190000      41.22260000      44.83270000        1        8
O       31.27250000      21.52480000      35.71400000        1        8
O       11.66640000       6.66212000      28.90280000        1        8
O       15.61280000      34.68520000       5.26434000        1        8
O       33.11770000      41.38810000       9.54852000        1        8
O       36.35550000      47.87770000      15.90170000        1        8
O       47.51130000       4.52403000      22.09620000        1        8
O       17.99210000      25.09460000      17.98290000        1        8
O       35.87690000      43.38400000      42.06820000        1        8
O       39.50140000       0.78169600      19.45880000        1        8
O       21.50380000      21.53470000       6.60031000        1        8
O        5.08212000      36.51080000      27.76720000        1        8
O       38.12640000      29.27170000       9.72735000        1        8
O       42.81130000      28.11270000       9.97713000        1        8
O       29.40960000      19.38710000       6.55636000        1        8
O       43.88590000       1.29376000      33.35290000        1        8
O        1.88494000      32.37580000      45.11540000        1        8
O       35.32970000       4.41339000       8.60425000        1        8
O       39.26580000       0.94111500      45.33850000        1        8
O       37.11680000      49.14330000      44.79170000        1        8
O       47.84770000      37.54150000      49.98840000        1        8
O       12.00550000      45.92020000      29.63210000        1        8
O        4.37442000       0.50052700      43.91670000        1        8
O       43.92520000      48.76860000      38.48200000        1        8
O       19.68330000      33.76050000      33.19230000        1        8
O       27.61300000       9.28247000      47.23360000        1        8
O       42.92210000      16.63690000      19.30140000        1        8
O        9.24048000      21.44830000      26.08920000        1        8
O       26.08150000      11.59400000      23.60760000        1        8
O       51.29220000      35.64780000       0.56149100        1        8
O       33.86310000      35.97600000      19.26940000        1        8
O       32.26580000      27.20710000      32.71470000        1        8
O       35.46260000      13.71090000      18.80790000        1        8
O       34.83460000      33.16360000       1.27819000        1        8
O       30.19610000       5.73416000      42.71210000        1        8
O       36.77450000      19.11660000      13.98150000        1        8
O       32.53530000      23.36590000      40.92690000        1        8
O       24.72740000      46.92600000      38.01030000        1        8
O       51.27630000      25.81930000      17.53590000        1        8
O       47.87060000      26.19780000      40.96430000        1        8
O        1.84449000       9.92018000      34.86110000        1        8
O       25.90160000      37.09240000       0.56755900        1        8
O       28.05460000      21.22870000       7.93374000        1        8
O       49.62210000       1.89279000      28.69210000        1        8
O       48.16320000      29.48800000      46.68200000        1        8
O       42.87810000      45.34400000      24.64370000        1        8
O       42.83060000      19.93850000      40.79140000        1        8
O       27.44680000       0.62700200       3.67162000        1        8