10020
Lattice="51.1564114786 0.0 0.0 0.0 51.1564114786 0.0 0.0 0.0 51.1564114786" Properties=species:S:1:pos:R:3:lammps_type:I:1:type:I:1 timestep=0 pbc="T T T"
O        7.65092000      30.91070000      11.55770000        1        8
O        9.59793000       6.78466000       2.53129000        1        8
O       33.06800000      46.78370000      25.34060000        1        8
O       12.69770000      36.36150000      20.65890000        1        8
O       21.48610000      14.77060000      49.31290000        1        8
O       44.54630000      46.29810000      18.23050000        1        8
O       32.52910000      23.94810000      19.48900000        1        8
O       11.18810000      14.53150000      10.11420000        1        8
O       20.10770000       2.79659000      12.91530000        1        8
O       14.79630000      46.31630000      41.92930000        1        8
O       36.22980000      26.16190000      26.36650000        1        8
O       21.27990000      20.69880000      28.55590000        1        8
O       14.36580000      47.53500000      33.75690000        1        8
O       29.79180000      23.53970000      29.99970000        1        8
O       10.36150000      34.65470000      24.80890000        1        8
O       46.93670000      46.12780000      35.28860000        1        8
O       43.04190000       9.67711000      38.69890000        1        8
O        1.62017000      49.59620000       6.45025000        1        8
O       37.73760000      47.26020000      24.63150000        1        8
O       28.36300000      44.72490000       8.71215000        1        8
O        3.58811000      41.50340000      37.43670000        1        8
O       15.78780000      18.84350000      33.13050000        1        8
O       48.72170000      18.50110000      14.94200000        1        8
O       47.30630000       9.56515000      14.22130000        1        8
O       48.56250000       5.00358000      40.44840000        1        8
O        2.91737000      21.71000000      34.04660000        1        8
O       46.47610000      13.73930000      19.59210000        1        8
O       30.33840000      45.19920000      18.40680000        1        8
O       39.34000000      45.29110000       4.20125000        1        8
O       26.63500000       1.96489000      39.81960000        1        8
O        6.94655000      36.38400000      43.04550000        1        8
O       25.98370000      47.67950000      40.34990000        1        8
O       48.88940000      22.20770000      29.19650000        1        8
O       25.17220000      34.06970000      44.31770000        1        8
O       11.94790000      27.25000000      41.45220000        1        8
O       43.41510000      30.73590000      38.85060000        1        8
O       39.68170000      33.22130000      47.57370000        1        8
O       14.24770000      15.93790000      31.94430000        1        8
O       19.17390000      47.09250000      32.60760000        1        8
O       13.72770000      17.00340000      36.94900000        1        8
O       20.27170000      38.58530000      12.69000000        1        8
O       23.77860000      41.04250000      44.78340000        1        8
O       13.81790000      35.86660000      44.45570000        1        8
O       19.21130000      10.90200000      17.62300000        1        8
O       20.72760000      22.56370000      17.73650000        1        8
O       29.63970000      43.02090000      37.61090000        1        8
O       25.77170000      12.30590000      50.63470000        1        8
O       11.40330000       6.69692000      13.48780000        1        8
O       33.02140000      11.36050000       1.62126000        1        8
O       23.55140000      44.81030000      42.18600000        1        8
O       41.67540000      30.34510000      33.40610000        1        8
O        8.57617000      16.21640000      37.45580000        1        8
O       48.95290000       9.73965000      42.00780000        1        8
O       34.52940000      36.84290000       9.47177000        1        8
O       44.00150000      17.92360000      20.32110000        1        8
O       42.61990000      46.42330000      44.08800000        1        8
O       20.05780000      49.58010000      15.85980000        1        8
O       40.32800000      45.90870000      27.31990000        1        8
O        3.82483000      23.47780000       7.74920000        1        8
O       29.59060000      13.30520000      49.85440000        1        8
O       22.63110000      35.91060000      47.09520000        1        8
O        2.46749000      26.63980000      23.37490000        1        8
O       34.18300000      28.09730000      36.87900000        1        8
O       43.11130000      30.34820000      20.09760000        1        8
O       23.55860000      23.48170000      45.91740000        1        8
O       44.65120000      41.60580000      25.44160000        1        8
O       27.90760000      12.83290000      36.35270000        1        8
O       42.86030000      11.91480000      15.16540000        1        8
O        6.17507000      11.18620000      14.97520000        1        8
O       28.15400000      25.30610000      25.38220000        1        8
O       31.97280000      36.90160000      12.48960000        1        8
O       38.39570000       4.17135000      33.26060000        1        8
O       29.59690000      18.04000000      45.73120000        1        8
O       26.37290000      27.09450000      18.38880000        1        8
O       13.29940000      15.94050000      46.27140000        1        8
O       21.64750000      49.71340000      31.01610000        1        8
O       33.56630000      23.20590000      42.44490000        1        8
O       11.25410000       6.50316000      34.76290000        1        8
O       15.53570000      39.50640000      13.62420000        1        8
O        6.51464000      21.21440000      32.86680000        1        8
O       34.41970000      24.39680000      30.66690000        1        8
O       30.38130000       9.13484000      44.15560000        1        8
O       49.67640000      29.98350000      27.71030000        1        8
O       40.95730000       6.98734000      23.17710000        1        8
O       36.58510000      43.41290000      22.21300000        1        8
O       36.39100000      40.96200000      21.55080000        1        8
O       19.82090000      42.09720000      14.48460000        1        8
O       28.08780000      31.93560000      48.21610000        1        8
O       21.22420000      30.82450000      47.63540000        1        8
O        7.46117000      47.42480000       1.53670000        1        8
O        8.31919000      47.38900000      36.58600000        1        8
O        9.05287000       1.74428000      42.40370000        1        8
O       10.82480000      27.96840000      11.04820000        1        8
O        2.45060000      31.61360000      14.15360000        1        8
O       31.68040000      18.46860000       2.62385000        1        8
O        3.20104000       1.24892000      12.39220000        1        8
O       50.19250000      26.83410000      29.03050000        1        8
O       13.50090000      43.68080000      49.26360000        1        8
O       30.01410000      19.68950000      21.12730000        1        8
O       28.56290000      25.59280000      51.09610000        1        8
O        7.39560000      45.31640000      21.00650000        1        8
O       48.98830000      27.95840000       5.10025000        1        8
O       34.61960000      28.43790000      22.76320000        1        8
O       36.71220000       5.44395000      22.39350000        1        8
O       38.97820000      30.82100000      23.92670000        1        8
O       37.37130000      34.42650000      47.54150000        1        8
O       21.48410000       9.48793000      40.52970000        1        8
O       49.88480000      39.74670000      45.47000000        1        8
O       38.50340000      35.36540000      12.58220000        1        8
O       34.25420000      39.14400000      46.62830000        1        8
O       45.07360000      22.70430000       8.21556000        1        8
O       33.32430000       5.36643000      42.67350000        1        8
O       24.75550000      39.67390000      15.54260000        1        8
O       48.87630000      32.28710000      20.05470000        1        8
O       39.52090000       3.93848000      45.28080000        1        8
O       46.19950000      32.68040000      50.02730000        1        8
O       25.47460000      19.07060000      33.10040000        1        8
O       16.60080000      45.43710000      45.57900000        1        8
O        4.40524000      22.51690000      32.09220000        1        8
O        3.82531000       3.65710000      38.68870000        1        8
O       11.48300000      10.83280000      40.89760000        1        8
O       45.70640000      43.54580000       3.52613000        1        8
O       21.91140000      28.92260000      17.30720000        1        8
O       11.16820000       7.14182000      37.27450000        1        8
O        5.66626000       7.69369000      43.09970000        1        8
O       21.66600000      46.41830000      36.94660000        1        8
O        5.45646000      42.38080000      21.68480000        1        8
O       24.79030000      12.47490000       9.74061000        1        8
O       12.21760000      30.04750000       2.82762000        1        8
O       44.01430000      37.90530000      18.31770000        1        8
O       23.80790000      18.56210000      14.44650000        1        8
O        5.92315000      50.30780000      32.81230000        1        8
O       33.91530000      32.06030000      35.17150000        1        8
O       44.14280000       7.76386000      22.26970000        1        8
O        0.70931000      43.18490000      50.61750000        1        8
O        4.49902000       6.58838000      27.67660000        1        8
O        8.78393000      32.19250000      38.97650000        1        8
O       38.24030000      31.73390000      43.43710000        1        8
O       49.04500000      27.83150000      26.28080000        1        8
O        2.66418000      43.80810000      24.49830000        1        8
O       21.99510000       1.56493000       2.09066000        1        8
O       44.65370000      30.34420000       1.20070000        1        8
O       24.31990000      27.36850000      33.54710000        1        8
O        8.75743000      41.81140000      48.09090000        1        8
O       50.95960000      26.21510000      49.38630000        1        8
O       45.40190000      41.28040000       4.92293000        1        8
O       31.34260000       7.74543000       4.11510000        1        8
O       26.39830000      39.66430000      49.30630000        1        8
O       45.72070000      43.21630000      35.08040000        1        8
O        2.31792000      47.21780000      13.68640000        1        8
O       48.42980000      12.59630000      10.62510000        1        8
O       27.82390000      46.59400000      26.44960000        1        8
O       33.72410000       5.96472000      25.73180000        1        8
O       21.98710000      33.46780000      25.04980000        1        8
O       30.00550000      30.85600000      46.91520000        1        8
O       10.14940000      30.86740000       1.71521000        1        8
O       10.09630000      17.40060000      34.51890000        1        8
O       15.23560000      47.51530000       4.92082000        1        8
O       42.75830000      21.39340000      37.23940000        1        8
O       25.13110000      39.22200000      45.98840000        1        8
O       46.36600000      36.42270000      46.91490000        1        8
O       48.72290000      39.09050000      47.75960000        1        8
O       35.08520000      43.86430000      43.08530000        1        8
O       24.05590000      51.29630000       1.81838000        1        8
O       46.47290000       1.18446000      50.17960000        1        8
O        5.45876000      34.02210000       0.92889800        1        8
O       35.35100000      48.64710000      40.82170000        1        8
O       32.64980000      20.06180000       4.54050000        1        8
O       37.63160000      36.54460000      20.11480000        1        8
O        6.14494000      16.40200000      38.54640000        1        8
O       46.74300000      12.63520000      22.07120000        1        8
O       27.42630000       5.06460000      36.05460000        1        8
O        2.29585000      49.45460000      45.04020000        1        8
O       50.97160000      29.27970000      10.29510000        1        8
O       21.01840000      40.86250000      18.77580000        1        8
O        4.90971000      47.33390000      24.79220000        1        8
O       18.03970000      39.11530000      39.77370000        1        8
O        4.88400000      12.12830000      20.62590000        1        8
O       27.62920000      21.49570000      48.64830000        1        8
O       26.89100000      44.36240000       1.97220000        1        8
O       17.98090000      40.45130000      13.74190000        1        8
O       15.67260000      10.38960000       2.15087000        1        8
O       49.21910000      47.91900000       6.57744000        1        8
O       13.28590000      34.45450000      33.69780000        1        8
O       28.64380000      46.52810000      35.38250000        1        8
O       39.14050000       8.90513000      34.01360000        1        8
O       29.80980000      49.26750000      30.14920000        1        8
O       28.06660000      48.24890000      45.21660000        1        8
O        2.47104000      50.35220000      18.32000000        1        8
O       29.23690000      49.37630000      47.36890000        1        8
O       23.98690000      27.20750000      40.18240000        1        8
O       49.73090000       4.81929000      26.82210000        1        8
O       35.10820000      19.22140000      13.78050000        1        8
O        8.24112000      47.66790000      25.60080000        1        8
O       26.27550000      17.42400000      31.06050000        1        8
O       23.09060000      16.01210000      20.41880000        1        8
O        0.68486400      34.13890000      10.90480000        1        8
O       26.29090000      19.60620000      42.76130000        1        8
O       27.28520000       3.37258000      27.45430000        1        8
O       37.76330000       6.01990000      17.03570000        1        8
O       26.79890000       7.26220000      37.35600000        1        8
O       36.88270000      11.21530000      19.14690000        1        8
O       51.01860000      37.37590000       2.71207000        1        8
O       42.43110000      46.36840000       9.07881000        1        8
O       26.42670000      50.72760000      36.87330000        1        8
O       21.46410000      26.94930000      18.98950000        1        8
O        2.19788000      36.27870000      33.80170000        1        8
O       47.48130000      12.09620000      45.89000000        1        8
O       12.65980000       4.89570000      30.46510000        1        8
O       49.29990000      30.25710000      46.56220000        1        8
O       46.13800000      43.21780000      29.59520000        1        8
O       37.15090000      11.27730000      27.21100000        1        8
O       32.42970000      13.39280000      30.75710000        1        8
O       11.33210000      29.79600000      48.52940000        1        8
O       20.63930000       9.87182000      12.95070000        1        8
O       15.86360000      10.48760000      25.97340000        1        8
O       47.72870000      32.45250000      37.33000000        1        8
O       23.21550000      15.11250000      29.72020000        1        8
O       41.78700000       7.81968000      46.37460000        1        8
O       19.45990000      31.71080000      43.14760000        1        8
O        9.98201000      20.41580000      27.78630000        1        8
O       31.01230000      40.59790000      22.37700000        1        8
O       31.09030000       9.47467000      35.04630000        1        8
O        6.28048000      32.02910000      26.33170000        1        8
O        9.99840000       9.29219000      28.22430000        1        8
O       34.71830000       4.66744000       3.95956000        1        8
O        8.84681000       3.85152000       6.01670000        1        8
O       37.79500000      46.89940000      19.64300000        1        8
O        9.75208000      48.25670000       0.64714400        1        8
O        5.41455000      10.02090000      22.20300000        1        8
O       19.22130000      21.55190000      35.52200000        1        8
O       19.83520000      18.67100000      28.06900000        1        8
O       24.22810000      38.58150000      43.70460000        1        8
O       26.25490000      33.59920000      48.97090000        1        8
O       21.03050000      14.53800000      13.85650000        1        8
O       19.46990000      17.66640000      30.56810000        1        8
O       28.55180000      23.14670000      37.29350000        1        8
O        9.57811000      17.02740000      48.27880000        1        8
O        2.72506000      17.81670000      30.76750000        1        8
O       39.70670000      44.91840000      12.99400000        1        8
O       46.71700000      32.88670000      23.90110000        1        8
O       47.27820000      33.54370000      39.82390000        1        8
O       49.18390000      48.30220000      26.63970000        1        8
O       50.07170000      24.37180000       1.24627000        1        8
O       16.17330000      15.20560000      28.24950000        1        8
O       23.14330000      23.26120000      41.99540000        1        8
O        5.57503000      13.30710000       4.65809000        1        8
O        0.83021100      22.11280000      11.53290000        1        8
O       14.68950000      38.15500000      27.20310000        1        8
O       39.86620000      35.25200000      39.04050000        1        8
O       17.22500000      32.94110000      36.65210000        1        8
O       31.22840000      40.20080000       4.11665000        1        8
O       34.43580000      44.38800000      38.49980000        1        8
O       29.89880000       9.36213000      14.90680000        1        8
O        6.19944000      31.20730000       6.77876000        1        8
O       44.00780000      48.13900000      29.08480000        1        8
O       47.42370000      46.89890000      42.88200000        1        8
O        6.11501000      14.05320000      42.66200000        1        8
O       27.28000000      35.11450000      13.81990000        1        8
O       19.52010000      17.05160000      12.09090000        1        8
O       37.90680000      46.06520000      32.41850000        1        8
O       31.52770000       4.29564000       3.20422000        1        8
O        8.42037000      16.65770000      19.45440000        1        8
O       42.82430000      40.73780000      12.05010000        1        8
O       34.81390000      35.08150000       0.76532900        1        8
O       29.33100000      20.70310000      33.12490000        1        8
O       14.91360000       4.29920000      44.69330000        1        8
O        8.83806000      43.03150000      36.31110000        1        8
O       31.63110000      45.47580000       3.73297000        1        8
O       37.24770000      40.62040000       5.37611000        1        8
O       42.91910000       7.57835000       2.10694000        1        8
O       24.22040000      12.72010000      30.46410000        1        8
O       19.90760000       8.77603000       4.71057000        1        8
O       33.56450000      29.80240000       6.01693000        1        8
O       17.74040000       1.04817000      18.73340000        1        8
O       12.79730000       9.64813000      51.24820000        1        8
O        2.62556000      40.27310000       9.97411000        1        8
O       27.06020000      20.81730000      25.00580000        1        8
O       48.80630000      12.60090000      40.56390000        1        8
O       42.71880000      17.82390000      41.69800000        1        8
O       46.69630000      18.78420000      43.02900000        1        8
O        7.04393000       3.56512000      10.59720000        1        8
O       49.44250000      38.12780000       5.67417000        1        8
O       15.36000000      49.34140000      27.05440000        1        8
O       46.55770000      42.35930000      41.69370000        1        8
O        6.70021000      17.91040000      16.34350000        1        8
O       37.36520000      34.89870000      30.37670000        1        8
O       41.74050000      20.01490000      13.37680000        1        8
O       34.24120000      41.50550000      47.54680000        1        8
O       22.36420000      33.42990000      22.60430000        1        8
O        3.89852000      22.00340000      46.25620000        1        8
O        2.75245000      11.66700000       7.81034000        1        8
O       34.47530000       2.18182000       2.89886000        1        8
O       30.36270000      11.29710000      23.20190000        1        8
O       49.79030000      50.71450000      27.76590000        1        8
O       49.02120000      19.94740000      48.72820000        1        8
O       11.69920000      14.83630000      16.15990000        1        8
O        1.71481000       6.07659000      41.53770000        1        8
O       30.83680000       1.12526000      50.84270000        1        8
O       31.22020000      27.34560000       5.30401000        1        8
O       26.34340000      39.38390000      24.80600000        1        8
O       49.43590000      14.76060000      25.93650000        1        8
O       40.84960000       0.56476500      44.90700000        1        8
O       20.80570000       8.98689000       7.15262000        1        8
O       18.56470000      25.19340000      43.90230000        1        8
O        6.94235000      16.39900000      42.97420000        1        8
O       24.96690000      25.44310000      11.08040000        1        8
O       32.77450000      25.81510000      22.09070000        1        8
O       13.16200000      42.55840000      10.45670000        1        8
O       45.89460000      30.17960000      34.46530000        1        8
O       38.46450000      37.24070000      45.63090000        1        8
O       33.96260000      48.11970000      27.34280000        1        8
O        3.93452000      20.99170000       7.76720000        1        8
O       26.11640000      36.56830000      30.74750000        1        8
O       40.05180000       0.55913700      19.98850000        1        8
O       17.36040000      46.89640000       3.58480000        1        8
O       51.17780000      46.69670000      10.96540000        1        8
O        1.55245000      30.71520000       6.23094000        1        8
O       50.65600000      17.46260000      39.35390000        1        8
O       23.89450000      16.60970000       4.18538000        1        8
O        3.49490000      12.97670000      31.68870000        1        8
O       50.58330000      22.28160000       6.58154000        1        8
O        5.66022000      13.58400000      49.79770000        1        8
O       45.90840000      15.76260000      46.84520000        1        8
O        7.50614000      47.05310000      45.72670000        1        8
O       20.07170000      28.42280000      20.70730000        1        8
O       46.65060000      34.74350000      37.61080000        1        8
O       31.54780000      11.15850000      45.50100000        1        8
O       24.27210000      46.66380000      18.78310000        1        8
O       39.07230000       1.24842000      49.80050000        1        8
O       49.12520000      10.23770000       4.30310000        1        8
O       14.80790000      17.21760000      14.42730000        1        8
O       16.94550000      20.50180000      13.95810000        1        8
O       50.51820000      13.46860000      37.75970000        1        8
O       13.24180000       4.34939000      25.50660000        1        8
O       17.20480000      43.42950000      31.79030000        1        8
O       45.00240000      11.62110000       6.94729000        1        8
O       47.46950000      25.34170000       1.84678000        1        8
O       13.34780000       8.05153000      45.42960000        1        8
O       12.03260000      34.00860000      20.71270000        1        8
O       13.24690000      19.12390000      21.62380000        1        8
O       47.22990000      14.23230000       5.62329000        1        8
O       45.24820000      50.81940000      10.33300000        1        8
O        3.41959000      12.85670000      28.93900000        1        8
O        2.39396000       3.95020000       9.88522000        1        8
O        6.55391000      43.91530000      23.29260000        1        8
O       21.78200000      33.39700000      47.34340000        1        8
O        1.92690000      41.48370000      39.82360000        1        8
O       12.63930000       8.62725000      14.91740000        1        8
O       10.82350000       5.36199000      20.95140000        1        8
O       26.74500000      24.53600000      31.10410000        1        8
O       32.34330000      22.05310000      50.97590000        1        8
O       13.43350000      47.68900000      30.80440000        1        8
O       31.06030000       9.01626000      31.93370000        1        8
O       39.12640000       4.65567000      42.84110000        1        8
O       11.38340000      44.43080000      22.82220000        1        8
O       16.72180000      38.82080000       2.37367000        1        8
O        1.25193000       6.74273000      48.77700000        1        8
O       25.94880000       4.95882000       6.59614000        1        8
O       24.38030000      15.71310000      16.87720000        1        8
O       23.77730000      46.30210000      45.47010000        1        8
O        2.52225000      21.06300000      42.57110000        1        8
O        4.45930000      40.41790000      20.43850000        1        8
O       41.43980000      26.49430000      50.33300000        1        8
O       25.06850000      46.91030000      26.25230000        1        8
O       34.59520000       4.54205000      11.42010000        1        8
O        2.75055000      41.87520000      26.22080000        1        8
O       49.17240000      32.22840000       2.94167000        1        8
O       37.99970000      13.90910000       8.02980000        1        8
O       18.24720000      35.93890000      32.99880000        1        8
O       31.70370000      37.16800000      25.53240000        1        8
O       31.60880000      34.25740000      43.20300000        1        8
O       31.04160000       4.18956000      17.55310000        1        8
O       18.83290000       6.60210000      10.08270000        1        8
O       34.22620000       6.36065000      44.92160000        1        8
O        8.07993000      26.97620000       6.98728000        1        8
O       31.74380000      18.00600000      17.00750000        1        8
O       11.37710000      20.13900000      22.99240000        1        8
O       41.12870000      48.17470000       7.48322000        1        8
O        1.34094000      20.23420000      38.44200000        1        8
O       28.39790000      28.89590000      47.04430000        1        8
O       11.14800000      29.94050000       5.13767000        1        8
O        2.00912000      24.88440000      14.68750000        1        8
O       39.30420000       9.45273000      39.69400000        1        8
O        0.87737600      14.91980000      43.63350000        1        8
O       13.54630000      11.64360000       3.15103000        1        8
O        2.94535000      51.10000000      33.07040000        1        8
O       18.73510000      47.83870000       8.33076000        1        8
O       48.53570000       1.18416000       4.28012000        1        8
O       30.12230000      43.26990000      44.52120000        1        8
O       29.06430000      21.05830000       6.54445000        1        8
O       20.42570000      32.46900000       3.41833000        1        8
O       22.63210000      14.19430000      15.82940000        1        8
O       34.72400000      19.17710000      49.28310000        1        8
O       38.95670000      41.87020000      45.12030000        1        8
O       14.30480000      21.44520000       1.45308000        1        8
O       20.32580000      13.51130000      37.81360000        1        8
O       14.13210000       5.57369000      23.38280000        1        8
O       33.54000000      50.86440000       3.18099000        1        8
O       44.36260000      37.27810000      48.32530000        1        8
O       18.98670000      34.93590000      49.99980000        1        8
O        9.83852000      34.75970000       5.81429000        1        8
O       29.46750000       9.36399000      50.14150000        1        8
O       32.33060000      30.91740000      16.61170000        1        8
O       14.47370000      12.50480000      19.19930000        1        8
O       10.42840000      17.87920000      18.65650000        1        8
O       32.93130000      36.02360000      28.35860000        1        8
O       39.13140000      32.69700000      18.65890000        1        8
O        4.85615000      20.47740000      41.46000000        1        8
O        6.89761000      28.71500000      37.05000000        1        8
O       30.62900000      17.39160000      26.22550000        1        8
O       22.26120000      25.70450000      41.65170000        1        8
O       28.10940000       4.70864000       8.15484000        1        8
O       38.78550000       9.64905000       9.68356000        1        8